LAMMPS data file generated with LigParGen (israel.cabezadevaca@yale.edu)

      70 atoms
      69 bonds
     134 angles
     183 dihedrals
      70 atom types
      69 bond types
     134 angle types
     183 dihedral types

   -1.110000    48.890000 xlo xhi
    0.000000    50.000000 ylo yhi
   -2.147000    47.853000 zlo zhi

Masses

       1     12.011
       2     12.011
       3     12.011
       4     12.011
       5     12.011
       6     12.011
       7     12.011
       8     12.011
       9     12.011
      10     12.011
      11     12.011
      12     12.011
      13     12.011
      14     12.011
      15     12.011
      16     12.011
      17     12.011
      18     12.011
      19     12.011
      20     12.011
      21     12.011
      22     18.998
      23     18.998
      24     18.998
      25     18.998
      26     18.998
      27     18.998
      28     18.998
      29     18.998
      30     18.998
      31     18.998
      32     18.998
      33     18.998
      34     18.998
      35     18.998
      36     18.998
      37     18.998
      38     18.998
      39     18.998
      40     18.998
      41     18.998
      42     18.998
      43     18.998
      44     18.998
      45     18.998
      46     18.998
      47     18.998
      48     18.998
      49     18.998
      50     18.998
      51     18.998
      52     18.998
      53     18.998
      54     18.998
      55     18.998
      56     18.998
      57     18.998
      58     18.998
      59     18.998
      60     18.998
      61     18.998
      62     18.998
      63     18.998
      64     18.998
      65     15.999
      66     15.999
      67     15.999
      68     15.999
      69     15.999
      70     32.067

Pair Coeffs

       1      0.066  3.5000000
       2      0.066  3.5000000
       3      0.066  3.5000000
       4      0.066  3.5000000
       5      0.066  3.5000000
       6      0.066  3.5000000
       7      0.066  3.5000000
       8      0.066  3.5000000
       9      0.066  3.5000000
      10      0.066  3.5000000
      11      0.066  3.5000000
      12      0.066  3.5000000
      13      0.066  3.5000000
      14      0.066  3.5000000
      15      0.066  3.5000000
      16      0.066  3.5000000
      17      0.066  3.5000000
      18      0.066  3.5000000
      19      0.066  3.5000000
      20      0.066  3.5000000
      21      0.066  3.5000000
      22      0.060  2.9000000
      23      0.060  2.9000000
      24      0.060  2.9000000
      25      0.060  2.9000000
      26      0.060  2.9000000
      27      0.060  2.9000000
      28      0.060  2.9000000
      29      0.060  2.9000000
      30      0.060  2.9000000
      31      0.060  2.9000000
      32      0.060  2.9000000
      33      0.060  2.9000000
      34      0.060  2.9000000
      35      0.060  2.9000000
      36      0.060  2.9000000
      37      0.060  2.9000000
      38      0.060  2.9000000
      39      0.060  2.9000000
      40      0.060  2.9000000
      41      0.060  2.9000000
      42      0.060  2.9000000
      43      0.060  2.9000000
      44      0.060  2.9000000
      45      0.060  2.9000000
      46      0.060  2.9000000
      47      0.060  2.9000000
      48      0.060  2.9000000
      49      0.060  2.9000000
      50      0.060  2.9000000
      51      0.060  2.9000000
      52      0.060  2.9000000
      53      0.060  2.9000000
      54      0.060  2.9000000
      55      0.060  2.9000000
      56      0.060  2.9000000
      57      0.060  2.9000000
      58      0.060  2.9000000
      59      0.060  2.9000000
      60      0.060  2.9000000
      61      0.060  2.9000000
      62      0.060  2.9000000
      63      0.060  2.9000000
      64      0.060  2.9000000
      65      0.140  2.9000000
      66      0.140  2.9000000
      67      0.170  2.9600000
      68      0.170  2.9600000
      69      0.170  2.9600000
      70      0.250  3.5500000

Bond Coeffs

       1   367.0000     1.3320
       2   268.0000     1.5290
       3   268.0000     1.5290
       4   268.0000     1.5290
       5   268.0000     1.5290
       6   268.0000     1.5290
       7   268.0000     1.5290
       8   367.0000     1.3320
       9   367.0000     1.3320
      10   367.0000     1.3320
      11   367.0000     1.3320
      12   367.0000     1.3320
      13   367.0000     1.3320
      14   367.0000     1.3320
      15   367.0000     1.3320
      16   367.0000     1.3320
      17   367.0000     1.3320
      18   367.0000     1.3320
      19   367.0000     1.3320
      20   367.0000     1.3320
      21   320.0000     1.4100
      22   268.0000     1.5290
      23   320.0000     1.4100
      24   268.0000     1.5290
      25   268.0000     1.5290
      26   367.0000     1.3320
      27   367.0000     1.3320
      28   367.0000     1.3320
      29   367.0000     1.3320
      30   367.0000     1.3600
      31   367.0000     1.3320
      32   367.0000     1.3320
      33   367.0000     1.3320
      34   320.0000     1.4100
      35   268.0000     1.5290
      36   320.0000     1.4100
      37   268.0000     1.5290
      38   367.0000     1.3320
      39   367.0000     1.3320
      40   367.0000     1.3320
      41   367.0000     1.3320
      42   367.0000     1.3320
      43   367.0000     1.3320
      44   340.0000     1.7700
      45   268.0000     1.5290
      46   367.0000     1.3320
      47   367.0000     1.3320
      48   700.0000     1.4400
      49   700.0000     1.4400
      50   700.0000     1.4400
      51   268.0000     1.5290
      52   367.0000     1.3320
      53   367.0000     1.3320
      54   268.0000     1.5290
      55   367.0000     1.3320
      56   367.0000     1.3320
      57   268.0000     1.5290
      58   367.0000     1.3320
      59   367.0000     1.3320
      60   268.0000     1.5290
      61   367.0000     1.3320
      62   367.0000     1.3320
      63   268.0000     1.5290
      64   268.0000     1.5290
      65   367.0000     1.3320
      66   367.0000     1.3320
      67   367.0000     1.3320
      68   367.0000     1.3320
      69   367.0000     1.3320

Angle Coeffs

       1     50.000    109.500
       2     58.350    112.700
       3     58.350    112.700
       4     58.350    112.700
       5     58.350    112.700
       6     58.350    112.700
       7     50.000    109.500
       8     50.000    109.500
       9     50.000    109.500
      10     50.000    109.500
      11     50.000    109.500
      12     50.000    109.500
      13     50.000    109.500
      14     50.000    109.500
      15     50.000    109.500
      16     50.000    109.500
      17     50.000    109.500
      18     50.000    109.500
      19     50.000    109.500
      20     50.000    109.500
      21     58.350    112.700
      22     60.000    109.500
      23     50.000    109.500
      24     58.350    112.700
      25     50.000    109.500
      26     50.000    109.500
      27     59.700    110.180
      28     59.700    110.180
      29     50.000    109.500
      30     50.000    109.500
      31     50.000    109.500
      32     50.000    109.500
      33     50.000    109.500
      34     58.350    112.700
      35     60.000    109.500
      36     50.000    109.500
      37     50.000    109.500
      38     50.000    109.500
      39     59.700    110.180
      40     59.700    110.180
      41     50.000    109.500
      42     50.000    109.500
      43     50.000    114.700
      44     58.350    112.700
      45     50.000    109.500
      46     50.000    109.500
      47     74.000    108.900
      48     74.000    108.900
      49     74.000    108.900
      50     58.350    112.700
      51     50.000    109.500
      52     50.000    109.500
      53     58.350    112.700
      54     50.000    109.500
      55     50.000    109.500
      56     58.350    112.700
      57     50.000    109.500
      58     50.000    109.500
      59     58.350    112.700
      60     50.000    109.500
      61     50.000    109.500
      62     58.350    112.700
      63     58.350    112.700
      64     50.000    109.500
      65     50.000    109.500
      66     50.000    109.500
      67     50.000    109.500
      68     50.000    109.500
      69     50.000    109.500
      70     50.000    109.500
      71     50.000    109.500
      72     50.000    109.500
      73     50.000    109.500
      74     50.000    109.500
      75     50.000    109.500
      76     50.000    109.500
      77     50.000    109.500
      78     50.000    109.500
      79     77.000    109.100
      80     50.000    109.500
      81     77.000    109.100
      82     77.000    109.100
      83     77.000    109.100
      84     77.000    109.100
      85     77.000    109.100
      86     77.000    109.100
      87     59.700    110.180
      88     59.700    110.180
      89     50.000    109.500
      90     50.000    109.500
      91     50.000    109.500
      92     50.000    109.500
      93     50.000    109.500
      94     77.000    109.100
      95     50.000    109.500
      96     50.000    109.500
      97     77.000    109.100
      98     51.140    110.240
      99     77.000    109.100
     100     77.000    109.100
     101     77.000    109.100
     102     50.000    109.500
     103     50.000    109.500
     104     77.000    109.100
     105     50.000    109.500
     106     50.000    109.500
     107     77.000    109.100
     108     77.000    109.100
     109     50.000    109.500
     110     50.000    109.500
     111     77.000    109.100
     112     50.000    109.500
     113     50.000    109.500
     114    104.000    123.000
     115    104.000    123.000
     116    104.000    123.000
     117     77.000    109.100
     118     50.000    109.500
     119     50.000    109.500
     120     77.000    109.100
     121     50.000    109.500
     122     50.000    109.500
     123     77.000    109.100
     124     50.000    109.500
     125     50.000    109.500
     126     77.000    109.100
     127     50.000    109.500
     128     50.000    109.500
     129     50.000    109.500
     130     50.000    109.500
     131     77.000    109.100
     132     77.000    109.100
     133     77.000    109.100
     134     77.000    109.100

Dihedral Coeffs

       1      0.300      0.000      0.400      0.000
       2      6.622      0.948     -1.388     -2.118
       3      6.622      0.948     -1.388     -2.118
       4      6.622      0.948     -1.388     -2.118
       5      6.622      0.948     -1.388     -2.118
       6      0.300      0.000      0.400      0.000
       7     -2.500      0.000      0.250      0.000
       8     -2.500      0.000      0.250      0.000
       9      0.300      0.000      0.400      0.000
      10      0.300      0.000      0.400      0.000
      11      0.300      0.000      0.400      0.000
      12      0.300      0.000      0.400      0.000
      13      0.300      0.000      0.400      0.000
      14      0.300      0.000      0.400      0.000
      15      0.300      0.000      0.400      0.000
      16      0.300      0.000      0.400      0.000
      17      0.300      0.000      0.400      0.000
      18      0.300      0.000      0.400      0.000
      19      6.622      0.948     -1.388     -2.118
      20      6.622      0.948     -1.388     -2.118
      21      0.250     -0.250      0.500      0.000
      22      0.250     -0.250      0.500      0.000
      23      1.300     -0.500      0.000      0.000
      24     -2.500      0.000      0.250      0.000
      25     -2.500      0.000      0.250      0.000
      26      0.300      0.000      0.400      0.000
      27      0.300      0.000      0.400      0.000
      28      0.000      0.000      0.540      0.000
      29      0.300      0.000      0.400      0.000
      30      0.300      0.000      0.400      0.000
      31      0.300      0.000      0.400      0.000
      32     -0.550      0.000      0.000      0.000
      33      0.300      0.000      0.400      0.000
      34      0.250     -0.250      0.500      0.000
      35      0.250     -0.250      0.500      0.000
      36      0.300      0.000      0.400      0.000
      37      0.300      0.000      0.400      0.000
      38      0.000      5.124      0.000      0.000
      39      0.000      5.124      0.000      0.000
      40     -2.500      0.000      0.250      0.000
      41     -2.500      0.000      0.250      0.000
      42     -2.500      0.000      0.250      0.000
      43      6.622      0.948     -1.388     -2.118
      44      0.300      0.000      0.400      0.000
      45      0.300      0.000      0.400      0.000
      46      0.000      0.000      0.000      0.000
      47      0.000      0.000      0.000      0.000
      48      0.000      0.000      0.000      0.000
      49      6.622      0.948     -1.388     -2.118
      50      0.300      0.000      0.400      0.000
      51      0.300      0.000      0.400      0.000
      52      6.622      0.948     -1.388     -2.118
      53      0.300      0.000      0.400      0.000
      54      0.300      0.000      0.400      0.000
      55      6.622      0.948     -1.388     -2.118
      56      0.300      0.000      0.400      0.000
      57      0.300      0.000      0.400      0.000
      58      6.622      0.948     -1.388     -2.118
      59      0.300      0.000      0.400      0.000
      60      0.300      0.000      0.400      0.000
      61      6.622      0.948     -1.388     -2.118
      62      6.622      0.948     -1.388     -2.118
      63      0.300      0.000      0.400      0.000
      64      0.300      0.000      0.400      0.000
      65      0.300      0.000      0.400      0.000
      66      0.300      0.000      0.400      0.000
      67      0.300      0.000      0.400      0.000
      68      0.300      0.000      0.400      0.000
      69      0.300      0.000      0.400      0.000
      70      6.622      0.948     -1.388     -2.118
      71      0.300      0.000      0.400      0.000
      72      0.300      0.000      0.400      0.000
      73      0.300      0.000      0.400      0.000
      74      0.300      0.000      0.400      0.000
      75      0.300      0.000      0.400      0.000
      76      0.300      0.000      0.400      0.000
      77      0.300      0.000      0.400      0.000
      78      0.300      0.000      0.400      0.000
      79     -2.500      0.000      0.250      0.000
      80     -2.500      0.000      0.250      0.000
      81     -2.500      0.000      0.250      0.000
      82     -2.500      0.000      0.250      0.000
      83      0.300      0.000      0.400      0.000
      84      0.300      0.000      0.400      0.000
      85     -2.500      0.000      0.250      0.000
      86     -2.500      0.000      0.250      0.000
      87      0.300      0.000      0.400      0.000
      88     -2.500      0.000      0.250      0.000
      89     -2.500      0.000      0.250      0.000
      90     -2.500      0.000      0.250      0.000
      91     -2.500      0.000      0.250      0.000
      92     -2.500      0.000      0.250      0.000
      93     -2.500      0.000      0.250      0.000
      94     -2.500      0.000      0.250      0.000
      95     -2.500      0.000      0.250      0.000
      96     -2.500      0.000      0.250      0.000
      97     -2.500      0.000      0.250      0.000
      98     -2.500      0.000      0.250      0.000
      99     -2.500      0.000      0.250      0.000
     100     -2.500      0.000      0.250      0.000
     101     -2.500      0.000      0.250      0.000
     102     -2.500      0.000      0.250      0.000
     103     -2.500      0.000      0.250      0.000
     104     -2.500      0.000      0.250      0.000
     105     -2.500      0.000      0.250      0.000
     106     -2.500      0.000      0.250      0.000
     107     -2.500      0.000      0.250      0.000
     108      0.300      0.000      0.400      0.000
     109      0.300      0.000      0.400      0.000
     110      0.300      0.000      0.400      0.000
     111      0.300      0.000      0.400      0.000
     112      0.250     -0.250      0.500      0.000
     113     -2.500      0.000      0.250      0.000
     114     -2.500      0.000      0.250      0.000
     115      0.300      0.000      0.400      0.000
     116     -2.500      0.000      0.250      0.000
     117     -2.500      0.000      0.250      0.000
     118      0.300      0.000      0.400      0.000
     119     -2.500      0.000      0.250      0.000
     120      0.000      0.000      0.540      0.000
     121     -2.500      0.000      0.250      0.000
     122      0.000      0.000      0.540      0.000
     123     -2.500      0.000      0.250      0.000
     124     -2.500      0.000      0.250      0.000
     125     -2.500      0.000      0.250      0.000
     126      0.000      0.000      0.760      0.000
     127      0.000      0.000      0.540      0.000
     128      0.000      0.000      0.540      0.000
     129      0.000      0.000      0.540      0.000
     130     -2.500      0.000      0.250      0.000
     131     -2.500      0.000      0.250      0.000
     132      0.300      0.000      0.400      0.000
     133     -2.500      0.000      0.250      0.000
     134     -2.500      0.000      0.250      0.000
     135      0.300      0.000      0.400      0.000
     136     -2.500      0.000      0.250      0.000
     137     -2.500      0.000      0.250      0.000
     138     -2.500      0.000      0.250      0.000
     139     -2.500      0.000      0.250      0.000
     140     -2.500      0.000      0.250      0.000
     141     -2.500      0.000      0.250      0.000
     142      0.000      0.000      0.000      0.000
     143      0.000      0.000      0.000      0.000
     144      0.000      0.000      0.000      0.000
     145      0.000      0.000      0.000      0.000
     146      0.000      0.000      0.000      0.000
     147      0.000      0.000      0.000      0.000
     148     -2.500      0.000      0.250      0.000
     149     -2.500      0.000      0.250      0.000
     150      0.300      0.000      0.400      0.000
     151     -2.500      0.000      0.250      0.000
     152     -2.500      0.000      0.250      0.000
     153      0.300      0.000      0.400      0.000
     154     -2.500      0.000      0.250      0.000
     155     -2.500      0.000      0.250      0.000
     156      0.300      0.000      0.400      0.000
     157     -2.500      0.000      0.250      0.000
     158     -2.500      0.000      0.250      0.000
     159      0.300      0.000      0.400      0.000
     160     -2.500      0.000      0.250      0.000
     161     -2.500      0.000      0.250      0.000
     162      0.300      0.000      0.400      0.000
     163     -2.500      0.000      0.250      0.000
     164     -2.500      0.000      0.250      0.000
     165      0.300      0.000      0.400      0.000
     166     -2.500      0.000      0.250      0.000
     167     -2.500      0.000      0.250      0.000
     168      0.300      0.000      0.400      0.000
     169     -2.500      0.000      0.250      0.000
     170     -2.500      0.000      0.250      0.000
     171      0.300      0.000      0.400      0.000
     172      0.300      0.000      0.400      0.000
     173     -2.500      0.000      0.250      0.000
     174     -2.500      0.000      0.250      0.000
     175      0.300      0.000      0.400      0.000
     176     -2.500      0.000      0.250      0.000
     177     -2.500      0.000      0.250      0.000
     178     -2.500      0.000      0.250      0.000
     179     -2.500      0.000      0.250      0.000
     180     -2.500      0.000      0.250      0.000
     181     -2.500      0.000      0.250      0.000
     182     -2.500      0.000      0.250      0.000
     183     -2.500      0.000      0.250      0.000

Atoms

     1      1      1   0.080222  1.07300 15.99300 -0.00300
     2      1      2   0.170639  2.38900 16.85900  0.01000
     3      1      3   0.168439  3.72400 16.02000 -0.03600
     4      1      4   0.169086  5.05000 16.88000 -0.02400
     5      1      5   0.170242  6.38700 16.03900 -0.07300
     6      1      6   0.169549  7.71500 16.89600 -0.04500
     7      1      7   0.490611 -0.25300 16.80600  0.04400
     8      1      8   0.170212  9.05100 16.05300 -0.10500
     9      1      9   0.169274 10.38200 16.90400 -0.04200
    10      1     10   0.171217 11.71500 16.05700 -0.10100
    11      1     11   0.168252 13.04800 16.90300 -0.02500
    12      1     12   0.170728 14.37300 16.04600  0.02100
    13      1     13   0.166133 15.71000 16.88700 -0.01700
    14      1     14   0.172031 17.01300 16.05300  0.28600
    15      1     15   0.107380 18.36000 16.84000  0.07700
    16      1     16   0.380840 20.02800 13.61400  0.48600
    17      1     17   0.193634 20.40300 12.53000 -0.57900
    18      1     18   0.346318 21.89800 12.68100 -1.04500
    19      1     19   0.337291 20.30700  9.97100 -0.66700
    20      1     20  -0.160520 19.43600  8.89500  0.05600
    21      1     21   0.484732 19.64200 16.12500  0.60200
    22      1     22  -0.090179  1.04500 15.13900  1.04000
    23      1     23  -0.090179  1.01700 15.21600 -1.10400
    24      1     24  -0.086717  2.38300 17.63600  1.11400
    25      1     25  -0.086717  2.35600 17.71000 -1.03600
    26      1     26  -0.086098  3.71200 15.24100 -1.13700
    27      1     27  -0.086098  3.73800 15.16900  1.01100
    28      1     28  -0.087082  5.05800 17.65600  1.08000
    29      1     29  -0.087082  5.03000 17.73300 -1.06800
    30      1     30  -0.084690  6.38300 15.27200 -1.18200
    31      1     31  -0.084690  6.39900 15.17700  0.96500
    32      1     32  -0.087346  7.72100 17.65500  1.07000
    33      1     33  -0.087346  7.70200 17.76600 -1.07600
    34      1     34  -0.128371 -0.36400 17.55300  1.15900
    35      1     35  -0.128371 -1.11000 16.11900  0.02900
    36      1     36  -0.128372 -0.39200 17.63300 -1.01000
    37      1     37  -0.083921  9.05400 15.31600 -1.23500
    38      1     38  -0.083921  9.05300 15.16200  0.90900
    39      1     39  -0.088112 10.37400 17.63800  1.09000
    40      1     40  -0.088112 10.38700 17.79600 -1.05400
    41      1     41  -0.082539 11.72400 15.33300 -1.24000
    42      1     42  -0.082539 11.70800 15.15500  0.90200
    43      1     43  -0.089537 13.00700 17.69300  1.06800
    44      1     44  -0.089537 13.10100 17.74300 -1.08000
    45      1     45  -0.080721 14.38400 15.18000 -1.01500
    46      1     46  -0.080721 14.35700 15.27900  1.13100
    47      1     47  -0.091853 15.63600 17.90200  0.86800
    48      1     48  -0.091853 15.82600 17.47200 -1.22800
    49      1     49  -0.078507 17.04100 14.95200 -0.49400
    50      1     50  -0.078507 16.96000 15.60300  1.55700
    51      1     51  -0.093895 18.31700 18.04900  0.67300
    52      1     52  -0.093895 18.55600 17.09600 -1.23300
    53      1     53  -0.081260 20.49700 16.79200  0.42000
    54      1     54  -0.081260 19.61000 15.95200  1.93900
    55      1     55  -0.097553 18.85000 13.29300  1.05800
    56      1     56  -0.097553 20.93600 13.61900  1.48200
    57      1     57  -0.073561 19.58900 12.71400 -1.64300
    58      1     58  -0.120147 22.11300 13.42400 -2.14700
    59      1     59  -0.120147 22.28100 11.42300 -1.33600
    60      1     60  -0.120147 22.75600 13.14800 -0.11900
    61      1     61  -0.095091 21.60200  9.60200 -0.64600
    62      1     62  -0.095091 19.94100 10.06000 -1.96000
    63      1     63  -0.113055 18.13900  9.25300 -0.02600
    64      1     64  -0.113055 19.73300  8.87900  1.37300
    65      1     65  -0.453435 19.92800 14.91600 -0.16500
    66      1     66  -0.361930 20.12900 11.23200  0.04500
    67      1     67  -0.565367 18.64300  6.44600  0.08300
    68      1     68  -0.565367 21.04100  6.80800  0.00000
    69      1     69  -0.565367 19.70400  7.23700 -2.03900
    70      1     70   1.230584 19.63200  7.23000 -0.60400

Bonds

     1      1     10     42
     2      2     11     10
     3      3     12     11
     4      4     13     12
     5      5     14     13
     6      6     15     14
     7      7     21     15
     8      8     41     10
     9      9     43     11
    10     10     44     11
    11     11     45     12
    12     12     46     12
    13     13     47     13
    14     14     48     13
    15     15     49     14
    16     16     50     14
    17     17     51     15
    18     18     52     15
    19     19     53     21
    20     20     54     21
    21     21     65     21
    22     22      9     10
    23     23     16     65
    24     24     17     16
    25     25     18     17
    26     26     39      9
    27     27     40      9
    28     28     55     16
    29     29     56     16
    30     30     57     17
    31     31     58     18
    32     32     59     18
    33     33     60     18
    34     34     66     17
    35     35      8      9
    36     36     19     66
    37     37     20     19
    38     38     37      8
    39     39     38      8
    40     40     61     19
    41     41     62     19
    42     42     63     20
    43     43     64     20
    44     44     70     20
    45     45      6      8
    46     46     32      6
    47     47     33      6
    48     48     67     70
    49     49     68     70
    50     50     69     70
    51     51      5      6
    52     52     30      5
    53     53     31      5
    54     54      4      5
    55     55     28      4
    56     56     29      4
    57     57      3      4
    58     58     26      3
    59     59     27      3
    60     60      2      3
    61     61     24      2
    62     62     25      2
    63     63      1      2
    64     64      7      1
    65     65     22      1
    66     66     23      1
    67     67     34      7
    68     68     35      7
    69     69     36      7

Angles

     1      1     11     10     42
     2      2     12     11     10
     3      3     13     12     11
     4      4     14     13     12
     5      5     15     14     13
     6      6     21     15     14
     7      7     41     10     11
     8      8     43     11     10
     9      9     44     11     10
    10     10     45     12     11
    11     11     46     12     11
    12     12     47     13     12
    13     13     48     13     12
    14     14     49     14     13
    15     15     50     14     13
    16     16     51     15     14
    17     17     52     15     14
    18     18     53     21     15
    19     19     54     21     15
    20     20     65     21     15
    21     21      9     10     11
    22     22     16     65     21
    23     23     17     16     65
    24     24     18     17     16
    25     25     39      9     10
    26     26     40      9     10
    27     27     55     16     65
    28     28     56     16     65
    29     29     57     17     16
    30     30     58     18     17
    31     31     59     18     17
    32     32     60     18     17
    33     33     66     17     16
    34     34      8      9     10
    35     35     19     66     17
    36     36     20     19     66
    37     37     37      8      9
    38     38     38      8      9
    39     39     61     19     66
    40     40     62     19     66
    41     41     63     20     19
    42     42     64     20     19
    43     43     70     20     19
    44     44      6      8      9
    45     45     32      6      8
    46     46     33      6      8
    47     47     67     70     20
    48     48     68     70     20
    49     49     69     70     20
    50     50      5      6      8
    51     51     30      5      6
    52     52     31      5      6
    53     53      4      5      6
    54     54     28      4      5
    55     55     29      4      5
    56     56      3      4      5
    57     57     26      3      4
    58     58     27      3      4
    59     59      2      3      4
    60     60     24      2      3
    61     61     25      2      3
    62     62      1      2      3
    63     63      7      1      2
    64     64     22      1      2
    65     65     23      1      2
    66     66     34      7      1
    67     67     35      7      1
    68     68     36      7      1
    69     69     43     11     12
    70     70     44     11     12
    71     71     45     12     13
    72     72     46     12     13
    73     73     47     13     14
    74     74     48     13     14
    75     75     49     14     15
    76     76     50     14     15
    77     77     51     15     21
    78     78     52     15     21
    79     79     42     10     41
    80     80      9     10     41
    81     81     44     11     43
    82     82     46     12     45
    83     83     48     13     47
    84     84     50     14     49
    85     85     52     15     51
    86     86     54     21     53
    87     87     65     21     53
    88     88     65     21     54
    89     89     42     10      9
    90     90     55     16     17
    91     91     56     16     17
    92     92     57     17     18
    93     93     66     17     18
    94     94     40      9     39
    95     95      8      9     39
    96     96      8      9     40
    97     97     56     16     55
    98     98     66     17     57
    99     99     59     18     58
   100    100     60     18     58
   101    101     60     18     59
   102    102     61     19     20
   103    103     62     19     20
   104    104     38      8     37
   105    105      6      8     37
   106    106      6      8     38
   107    107     62     19     61
   108    108     64     20     63
   109    109     70     20     63
   110    110     70     20     64
   111    111     33      6     32
   112    112      5      6     32