ITEM: TIMESTEP
0
ITEM: NUMBER OF ATOMS
3
ITEM: BOX BOUNDS pp pp pp
0.0000000000 20.0000000000
0.0000000000 20.0000000000
0.0000000000 10.0000000000
ITEM: ATOMS id type element x y z
1 1 O 10.000 10.000 5.000
2 2 H 10.757 10.586 5.000
3 2 H  9.243 10.586 5.000
