ITEM: TIMESTEP
499000
ITEM: NUMBER OF ATOMS
4524
ITEM: BOX BOUNDS pp pp pp
0.0000000000000000e+00 4.4042588185197197e+01
0.0000000000000000e+00 4.4042588185197197e+01
0.0000000000000000e+00 4.4042588185197197e+01
ITEM: ATOMS id type element xu yu zu vx vy vz fx fy fz
3124 1 C 4.79747 52.9805 6.55687 -0.00307028 0.00944849 -0.0019898 -45.2382 18.8583 35.3168
3145 2 F 5.08443 51.7039 6.41947 0.00409718 -0.00410829 0.00133907 49.4085 -14.196 28.3865
3130 1 C 3.83902 53.3362 5.37156 0.000290941 -0.00511611 -0.00268191 21.0582 11.7118 -20.0697
3158 2 F 2.86603 52.4183 5.21512 -0.0057744 0.00509752 -0.00413506 37.5603 41.6772 8.66434
3125 1 C 4.04631 53.1233 7.97554 -0.0016152 -0.00909693 -0.00311299 28.166 -10.9325 -16.9764
3147 2 F 2.80504 52.6326 7.88239 0.00451242 0.00193301 -0.00127983 39.0324 -9.875 -14.3658
3157 2 F 3.36144 54.563 5.4969 0.00332355 -0.000123287 0.00296279 -3.8865 -8.7241 -23.4979
3159 2 F 4.6576 53.3237 4.30651 0.00583845 0.000944034 -0.00520651 -45.9532 5.18917 -23.2905
3146 2 F 5.92061 53.7354 6.45858 0.00321204 -0.00945519 0.00671326 -23.903 -34.2899 15.8137
3148 2 F 3.85721 54.3917 8.25989 0.00378418 0.00314052 -0.00428263 29.621 46.8778 -34.7085
4227 4 H -26.5273 49.6054 7.94604 0.00226702 0.00981135 -0.0161646 -19.3794 -18.75 -7.86188
4225 8 O -25.5788 49.549 7.9689 0.0136962 -0.00503841 0.000991095 13.6827 -19.9115 2.00936
1785 2 F 44.0373 9.75578 7.61456 -0.00014798 0.00468966 -0.000608604 -37.6256 -37.5188 -20.0909
3224 2 F 12.1232 44.1813 7.58125 -0.00152561 -0.00177922 -0.00267224 4.46251 -19.5527 26.2938
2561 2 F 20.7068 3.28435 8.15198 0.00724653 -0.0015246 -0.00810012 -46.4111 45.3569 -56.3603
4226 4 H -25.4218 50.3432 7.51503 0.00906535 -0.0134296 -0.0153025 24.7723 32.1134 -9.31987
241 2 F 21.8493 10.787 6.29677 0.000962639 -0.00400241 0.00337177 -6.60243 -6.9408 -12.0986
3222 2 F 9.87383 44.5159 8.73662 0.00586157 0.00258265 -0.0010256 -12.1843 -33.6905 31.1388
3161 2 F 4.71047 50.8895 14.2355 -0.00286862 -0.00119147 0.00477335 1.89687 -14.8784 -35.873
3129 1 C 4.91745 52.8214 13.0712 0.0054155 -0.00442034 -0.00233561 -7.06889 -19.6347 -45.3695
3131 1 C 5.54123 51.9307 14.1652 -0.00191301 -0.002524 -0.000496002 -3.87997 25.2871 30.5911
3128 1 C 5.36847 52.381 11.6388 0.00689487 0.00108728 0.0012963 -72.869 -44.8926 -2.55343
3155 2 F 3.60291 52.6827 13.0998 0.00219677 -0.00233499 -0.00818679 -1.64769 -16.6447 -18.1868
3132 1 C 5.73375 52.5981 15.6091 0.00191318 0.00260086 -0.00503748 -18.0808 -64.2413 -30.7875
3174 2 F 6.33169 47.17 15.5454 -0.00448941 -0.00459183 0.0029695 -0.953005 26.2508 -0.244044
3127 1 C 4.40041 52.8386 10.5235 -0.00374118 -0.00705185 -0.00183021 16.1938 -22.2993 4.04917
3180 2 F 3.98173 45.7749 15.1188 -0.00163187 -0.000279355 0.00862257 -8.2982 -15.8598 35.7813
3151 2 F 3.22645 52.3277 10.7684 -0.00320829 -0.00416768 0.000232069 7.75854 -42.1629 30.936
3154 2 F 5.36988 50.9905 11.5764 0.00075562 -0.00735114 -0.00713343 -14.7664 33.4194 -17.6115
3153 2 F 6.54414 52.8924 11.5091 0.00110713 0.000679598 -0.000899586 10.0985 37.0164 -54.8372
3167 2 F 6.47456 49.827 15.6481 -0.000231188 -0.0013029 0.0003794 1.83476 -51.6508 -42.2821
3160 2 F 6.71013 51.5204 13.7985 -0.00125375 0.00355417 0.00970708 -3.11719 14.1855 -26.1166
3188 5 O 6.64422 44.7999 14.755 0.00221873 -0.00182546 0.00158832 6.4129 -16.8154 24.785
3133 1 C 5.61539 51.5279 16.7767 -0.00516232 -0.00262434 0.00891417 11.8868 54.0501 16.1563
3134 1 C 6.67666 50.4421 16.7495 0.0130776 0.00437238 -0.00571249 55.0838 -9.11098 67.7085
3164 2 F 4.42708 50.957 16.7396 -0.00329131 -0.00493446 0.00132503 -11.0274 6.27581 0.70173
3163 2 F 6.91047 53.2498 15.6764 -0.00315634 0.00378088 -0.0032908 1.66745 -0.299028 -23.7357
4369 8 O 44.3636 47.6363 11.91 -0.00568925 0.00182867 -0.00363217 -14.4808 27.7464 9.96133
4276 8 O 44.6544 3.60364 14.5064 0.00531249 -0.000598318 0.00110769 10.3199 11.9968 18.3463
4438 8 O 2.9404 3.67558 10.8105 -0.00209524 -4.41905e-05 0.000704111 48.2202 -19.491 15.2837
4440 4 H 3.33774 4.54067 10.5891 0.00558584 -0.00888591 0.00180405 0.185579 -9.85187 5.58318
4439 4 H 3.75401 3.09975 11.044 -0.00891558 0.00603721 0.000454196 -25.8267 17.752 -14.8498
4517 4 H 61.8403 3.1561 15.0072 0.00733017 -0.0155307 -0.00377527 -19.5731 -18.6555 -33.6478
4371 4 H 45.0348 48.1242 11.3947 0.00392057 -0.00174034 0.0119227 4.92519 -8.30522 19.3671
4378 8 O 5.20525 46.4917 11.5219 0.0010066 0.00319496 -0.00115037 5.34398 25.0546 21.7269
4379 4 H 5.70679 46.2364 12.303 -0.0218006 -0.0121448 0.0120412 -3.02891 -4.63647 4.41673
4380 4 H 5.29682 45.6966 10.9665 0.0117904 -0.0132979 0.000408654 -6.6802 12.6465 2.68631
1783 2 F 44.3993 8.29135 9.67788 -0.000817174 0.00713435 -0.00244336 -25.7072 7.6493 -21.238
3175 2 F 6.72896 46.1923 17.4001 0.00413657 -0.00500359 -0.00158155 29.9956 -12.5719 -31.3709
3725 2 F 15.9601 8.90933 17.4162 -0.00224887 -0.0047618 -0.00788989 -15.2517 4.59788 29.2132
1779 2 F 45.3518 10.0758 11.412 0.00254366 0.0044736 0.00328898 57.0383 55.3908 36.1127
3162 2 F 4.71743 53.4199 15.7421 -0.000577101 -0.0014402 -0.00755916 -31.0355 10.9873 -12.2104
3156 2 F 5.27541 54.1063 13.2552 -0.00266573 -0.00267748 0.00490303 11.6701 -30.3343 -0.958289
4370 4 H 44.7109 47.6214 12.8644 0.019426 -0.0254333 -0.00143294 -2.78191 2.45779 -14.1125
3186 2 F 2.91628 44.5082 11.9297 -0.00471868 0.00519471 -0.00284081 0.313367 8.09493 24.6732
3150 2 F 4.45131 51.0272 8.9434 0.00647386 -0.00125567 -0.00078734 11.5061 -36.6271 -1.14168
486 9 S 14.8909 1.76103 17.2959 0.000131895 -0.00148258 6.81755e-06 48.5253 -80.6789 35.5764
3141 1 C 3.61012 44.4742 15.1636 0.0025337 0.00315921 -0.0024821 -16.0814 1.85882 -13.4894
3196 1 C 10.5275 44.0927 10.9414 0.00155344 0.00335938 0.00229894 -26.8333 23.3064 0.789752
1774 2 F 44.7599 9.92786 14.7231 -0.000820605 0.00101286 -0.00440448 30.8185 -10.7823 -6.48509
2323 2 F 13.8519 7.28629 17.2937 0.00384813 -0.00201798 -0.00114142 7.61994 -21.2922 14.3892
3152 2 F 4.36844 54.1087 10.6569 -0.000930225 0.00109035 0.00226764 6.02456 7.41056 -27.0722
3376 2 F 21.6333 9.74257 17.3151 -0.00371406 -0.00629651 0.00182837 12.1219 -10.6249 13.811
3126 1 C 4.75214 52.3287 9.0692 0.000744902 0.00278821 0.00424256 39.0427 16.4812 18.3711
2519 1 C 21.1054 2.84864 9.31075 -0.000441905 0.00394822 0.00174287 12.0441 -38.5599 56.3365
3172 2 F 9.49633 46.9434 17.0023 0.00283259 -0.000822363 0.00379812 30.1881 -18.949 19.2365
4441 8 O 0.814869 1.49332 10.3424 -0.00381151 0.00432362 0.00841413 -63.2331 -21.2989 -38.5911
1283 2 F 18.3738 9.24623 9.32704 -0.00217667 0.00115941 -0.00587023 44.3554 2.78967 -6.73069
3138 1 C 7.33134 46.597 16.258 -0.00272396 -0.000223365 -0.00235699 -35.6368 -2.97646 -6.81479
3187 3 H 1.57089 44.391 9.43198 -0.00447371 0.00638121 -0.0207677 17.995 -7.64283 16.6673
2567 6 O 21.0035 5.08712 10.6334 -0.00435113 -0.000393757 0.00121409 -13.4707 -23.8074 44.5694
1230 2 F 17.4918 7.6867 12.9177 -0.00138718 0.00461506 0.00210618 -8.01777 -36.6851 7.69747
3166 2 F 7.91504 51.005 16.7446 0.0052342 -0.00512028 0.00580813 -28.4799 -4.33582 31.9491
2322 2 F 14.2665 5.28588 16.7222 0.00188169 0.00634636 -0.00121727 33.2361 -19.6339 -29.9554
3137 1 C 8.41005 47.6386 16.7334 0.00105748 -0.00930338 -0.00283224 -29.7043 -22.009 -30.9994
3144 1 C 7.82101 45.412 15.3791 0.0048449 -0.0014977 -0.00331341 -20.1218 -9.00078 6.2048
3176 2 F 8.52237 44.5865 16.171 0.000896149 -0.00183644 -0.0030559 -27.531 14.3262 -40.9898
3221 2 F 11.5087 45.7628 9.56999 0.00323437 0.00326645 0.00189259 21.574 16.962 -21.3349
3228 2 F 7.89813 46.7927 13.3652 -0.00090141 0.0030303 -0.00324967 1.4443 22.8653 57.4896
2302 1 C 10.3998 10.4752 14.2826 -0.00112699 0.00134977 0.0107709 -69.8404 23.5635 11.7951
2329 2 F 11.774 8.62336 16.209 0.00251362 -0.00299173 0.00101244 -34.3826 17.1123 -41.8216
2327 2 F 13.0814 5.80998 14.6807 0.0016319 0.0024359 0.00500853 19.7901 -12.9896 -26.9738
3218 2 F 9.02478 45.9452 11.1075 0.00118656 -0.00214164 -0.0029986 -7.37243 -14.4462 -4.7978
3173 2 F 8.64689 48.4255 15.6828 -0.00270034 0.000255318 -0.00158885 -30.3579 20.9503 33.3334
3200 1 C 8.62991 45.9266 14.1246 -0.00160117 -0.00242015 6.56992e-05 28.9612 -2.54977 3.78484
3194 1 C 9.15432 44.8165 13.1183 -0.000381365 -0.00575079 -0.00635317 4.84335 -27.5286 -6.84546
2333 2 F 11.848 9.42663 12.6834 0.00120865 0.0048591 -0.00325664 -59.7083 -10.7623 -16.8023
2335 2 F 9.52622 10.1913 15.3224 -0.00158408 0.000166029 -0.00189486 53.1453 -5.81573 -1.18018
3227 2 F 9.84155 46.4394 14.5422 0.00110542 -0.00437603 0.00159415 -5.41054 13.9751 -51.3561
2332 2 F 9.70479 9.10176 12.5713 0.00168346 -0.000337931 -0.00165643 21.2312 -14.006 -14.6278
2330 2 F 9.80426 7.57542 14.7763 0.00141078 0.00133942 -0.00247579 -25.2912 -12.3829 8.97874
2300 1 C 10.8992 7.89746 14.1026 -0.000137176 -0.00104942 0.00442781 -28.4564 0.983046 16.3045
2331 2 F 11.0508 6.96967 13.139 0.00153685 0.00206748 -0.00157868 -10.378 -9.10478 21.4132
2299 1 C 12.0524 7.79117 15.1563 0.00605385 0.0124237 -0.00158551 23.5886 33.3928 52.0466
2328 2 F 13.2456 8.07832 14.6567 -0.00751001 0.0021566 -0.00129129 23.8885 58.4739 20.683
2301 1 C 10.7041 9.24722 13.4003 0.00230559 0.00131451 0.00317011 29.9773 -0.0408421 3.16184
3195 1 C 9.92937 45.2677 11.8358 -0.00672273 -0.00389879 0.00299059 -38.9001 -6.34262 -55.6506
3217 2 F 10.9154 46.1047 12.1163 0.00211444 0.00116051 -8.84757e-05 2.67549 6.01309 21.4794
3197 1 C 11.012 44.5224 9.50136 -0.00768785 0.00411637 -0.00687198 -10.1424 -24.652 9.49377
2298 1 C 12.4311 6.37484 15.697 -0.00142108 -0.00651523 0.00398912 -25.3131 -36.3751 10.6333
2326 2 F 11.2967 5.71522 15.8646 0.0020972 0.00176428 -0.00531647 -19.0194 -34.472 -2.7724
2296 1 C 13.2859 6.13117 16.9816 -0.00523072 0.00577117 0.00151632 25.5658 29.5648 4.43374
4406 4 H -30.4919 91.4673 14.3005 0.00611173 -0.0158676 -0.02394 -11.8663 13.2291 6.19897
4405 8 O -30.2947 90.5496 14.4312 -0.00258404 -0.00205042 0.000374498 -11.0834 -10.8199 9.13783
480 3 H 13.8289 1.40705 15.599 -0.014172 -0.0346081 0.00131003 -13.8012 -3.89191 -20.4348
3095 2 F 17.8803 44.2221 14.4384 -0.0011424 0.00152185 -0.00207744 19.0491 -42.9048 -36.8181
484 7 O 13.984 0.785903 16.3073 0.00591192 -0.00446196 -0.00304839 37.7856 -3.21429 23.4062
2334 2 F 11.5647 10.9744 14.7305 -0.00922692 -0.000692691 0.00596575 -17.0938 22.0733 12.3623
2565 6 O 20.3685 2.90937 11.8254 -0.00330691 0.0053237 0.00698549 -22.3468 29.4237 18.2269
4407 4 H -29.927 90.3534 13.5693 -0.028034 0.000648432 0.0234844 14.9525 -16.5983 -30.5193
4518 4 H 62.5906 2.26514 13.9856 -0.0345435 0.00536969 0.0102169 -25.3761 0.208002 -1.69265
3099 2 F 20.3402 44.9239 14.0626 0.000567212 0.002769 0.000147542 8.15752 -42.8995 9.19745
1233 2 F 15.9479 9.56733 13.5843 -0.00673026 -0.00277306 0.000171862 18.3385 19.6247 54.4666
4443 4 H 1.18247 2.17194 10.8924 0.0302225 -0.00437521 0.00372558 26.7428 14.0876 2.58457
4516 8 O 61.7305 2.73336 14.0918 -0.00341304 -0.00542709 0.00416319 35.7691 7.349 66.2185
1193 1 C 20.2783 7.1178 13.473 -0.00296961 0.00693251 0.00293378 -34.9645 48.748 -36.949
2566 7 O 18.9164 3.78499 9.97079 -0.000141171 0.0032707 -0.00409434 16.2105 2.01571 -10.3182
1227 2 F 19.7585 5.98289 13.005 -0.000262931 -0.00106651 -0.00168567 39.0981 -4.65022 23.4045
3722 2 F 18.3968 9.34483 17.5276 -0.000399993 0.00187167 0.00189174 -13.1057 -53.4851 -39.9022
2560 2 F 20.6862 1.63416 9.5159 -0.0008343 0.000460596 0.000657685 8.47795 -49.8384 -15.8366
1192 1 C 21.8144 6.96735 13.5544 0.00688745 0.00593435 -0.00203298 31.1255 -21.4541 27.9998
1196 1 C 16.1552 10.7045 12.9943 -0.00571983 0.0131318 -0.00210003 64.6242 -2.22453 -25.2277
1231 2 F 18.3689 7.30275 10.9986 0.00315126 0.000763814 -0.00571921 27.5785 -28.2913 -11.8443
1284 2 F 19.4858 10.6513 10.4957 -0.000673593 0.00175299 0.00533541 31.6733 23.244 -29.9486
4492 8 O 15.4535 2.24635 12.402 -0.00684475 0.00366992 -0.00555772 -15.207 -39.9699 13.866
4494 4 H 15.5143 2.92226 11.684 -0.0126385 -0.00116055 -0.00396644 -2.64748 3.18802 19.9194
4203 4 H 60.9043 -39.6757 10.8048 -0.00316556 -0.0142945 -0.00347374 -11.463 -0.728187 -1.03702
485 6 O 15.9145 2.48156 16.5554 0.00464914 2.63295e-05 0.00248804 15.9221 -26.9325 43.1452
1222 2 F 21.3854 5.58121 15.5187 -0.00295907 -0.000692547 -0.00545789 9.02835 -9.12521 15.9911
1256 1 C 18.2506 10.2447 10.1963 0.00144485 -0.013763 0.00322639 -17.2181 -19.1802 18.69
1234 2 F 15.2474 10.8886 12.0546 0.00400523 0.000673565 -0.00170132 -6.18049 -22.7135 25.3863
2562 3 H 18.963 4.38118 9.21261 -0.0194277 -0.0061089 0.00857426 -4.72645 2.876 1.60065
4493 4 H 16.295 2.34092 12.8736 0.00407495 -0.0030932 -0.0159956 13.7952 5.21318 -0.30689
1244 5 O 17.4711 10.4416 12.3893 0.000806577 0.00099899 0.00362434 -30.4084 38.7667 -23.4168
1194 1 C 19.7266 8.32565 12.5414 0.00339542 -0.000711978 0.00160656 2.57368 27.381 14.4361
2568 9 S 20.4397 3.7714 10.6747 -9.12682e-05 -0.00327603 -0.00522809 -54.4136 -3.9169 -64.4328
1229 2 F 19.7532 9.51059 13.1863 -0.00188864 -0.00148936 0.00579821 -8.04895 -47.1406 -13.3427
1228 2 F 20.4893 8.43268 11.4642 -0.000866273 -0.00257187 0.00175588 20.7792 12.1375 -22.192
1201 1 C 17.5561 9.43968 11.3764 0.00362441 -0.000956016 0.0029119 60.5652 64.9366 -12.3078
1195 1 C 18.2837 8.15818 11.9635 -0.00384918 -0.00432267 0.00448945 -25.8755 34.5205 -10.1688
1232 2 F 16.3722 9.13336 10.9913 0.00462137 -0.0101573 -0.00583923 6.63737 -6.40266 -28.7708
4201 8 O 60.0011 -39.5524 11.1717 0.00267197 -0.00117275 -0.00608838 36.9268 12.1552 -32.3023
4202 4 H 59.7944 -38.6037 11.1125 -0.0139178 0.0266489 -0.00924105 3.26627 -3.16425 -0.332813
1226 2 F 19.7764 7.37856 14.7147 -0.00106513 -0.00290234 0.00171005 -21.2133 -44.7569 -30.1695
4277 4 H 45.4517 3.70611 15.0436 0.01691 -0.00315699 0.00221144 -13.2745 2.39459 5.02231
3182 2 F 2.58074 44.2896 14.361 -0.000144375 -0.00245072 0.00303221 15.2319 20.8202 -37.3023
3718 2 F 19.9467 6.69294 17.3867 -0.00236493 0.00291009 -0.000171596 14.548 -7.77313 5.17783
1746 1 C 44.1181 9.96852 11.8318 0.00164937 3.73488e-05 0.00393306 -45.9371 29.8263 -15.069
3181 2 F 3.11112 44.1494 16.3765 0.0052462 0.00683275 -0.00269977 46.621 42.8497 -10.4546
3223 2 F 13.2526 44.1637 9.42478 -0.00231845 0.000951098 0.00186898 -24.8801 -15.128 -34.2344
3215 2 F 10.0487 44.0166 13.7382 0.00340716 -0.00682677 7.55931e-05 19.8776 3.58154 36.5637
3168 2 F 5.76033 48.4792 17.6525 -0.00548662 0.00388119 0.00563682 -2.36513 -33.7652 -15.8634
3149 2 F 6.0904 52.5145 8.92832 0.00696534 0.00515126 0.00538149 -25.052 -10.938 -40.0983
348 1 C 2.58563 6.50516 20.091 -7.02367e-05 0.00704223 -0.00570177 -43.1538 -79.7961 -4.67247
349 1 C 3.20268 6.01959 21.4342 0.000100372 -0.0048375 -0.00171653 70.1624 -4.10571 -7.14328
369 2 F 3.40953 6.29574 19.0953 0.00104773 -0.00232608 0.00222028 43.3824 47.3222 26.6679
372 2 F 2.28266 5.96809 22.2497 -8.00545e-05 -0.00203141 -0.00144243 -92.8663 34.1126 55.2217
370 2 F 2.04681 7.74275 20.1521 0.00596668 -0.00101204 -0.00573072 40.604 15.8895 16.8958
354 1 C 1.4556 5.43553 19.7598 -0.0118609 -0.00446656 -0.000604399 -49.5848 79.7407 -42.5199
350 1 C 4.28609 6.98196 22.0036 -0.00145978 -0.0023544 0.00441352 1.50429 15.3826 -13.0454
371 2 F 3.70275 4.78479 21.3918 -0.00715397 0.00288748 -0.00413079 -6.99599 1.82212 7.46956
4142 2 F 4.31043 46.3577 22.266 0.0112879 0.00665198 -0.000438014 39.3042 23.1367 42.7161
374 2 F 4.87147 7.61196 20.9779 0.00775409 0.00381461 0.000843348 14.5701 -29.2075 23.2338
4138 2 F 2.49545 47.0774 23.6931 -0.000443974 -0.000323993 6.84416e-05 -38.9051 24.5895 -34.4808
4147 2 F 5.85336 45.4803 20.3102 -0.00458422 0.00234809 0.00158935 29.1727 32.1988 -25.2991
4108 1 C 3.83532 45.2052 21.9438 0.00460421 -0.00453435 0.00190687 -1.49955 -16.369 -28.3551
4107 1 C 2.65413 44.9003 22.8207 0.00466057 -0.00719795 -0.000860686 -30.2581 -1.74301 -1.52056
373 2 F 3.67113 7.95094 22.6385 0.00145384 0.000987525 -0.00144397 -36.3796 -28.1831 -21.1468
351 1 C 5.3044 6.3057 22.9685 0.00102398 -0.00114241 0.00724168 -1.1839 -1.08403 -3.27786
3169 2 F 6.56518 49.7887 19.1291 -0.00700069 0.00136372 0.00197296 -1.4014 48.341 0.109484
376 2 F 4.54493 5.56341 23.7218 0.00201018 0.00800073 0.00364169 -14.2224 -1.99278 41.0885
961 2 F 45.8144 8.12081 24.4453 -0.00109602 -0.0020878 0.00471047 -23.2412 -6.05543 -6.15084
4106 1 C 1.74787 46.1672 23.0223 0.00409431 -0.00128982 0.00331732 -8.03116 -16.0814 -2.28392
377 2 F 5.68613 7.30045 25.0612 -0.000673237 -0.00234811 -0.00482163 -51.7424 38.0274 30.6102
4139 2 F 1.45928 46.6689 21.829 0.00116397 0.00105102 0.000991173 45.322 -1.39433 11.6417
382 2 F 1.88512 4.23319 19.5933 -0.000498841 0.00103222 -0.000388597 -14.4973 -36.3437 8.48312
381 2 F 0.42412 5.48461 20.6381 -0.000232007 0.000931435 0.00355109 28.9461 -19.7549 31.2072
4141 2 F 3.04698 44.4816 24.0055 -0.00314874 0.00250349 -0.00482852 -7.78966 24.7488 44.3109
4143 2 F 3.29572 45.2884 20.733 0.00115952 -0.00128731 -0.000647591 11.972 7.13513 -27.5432
4115 1 C 6.04778 44.3757 21.0015 -0.00179613 0.00472692 0.00278851 17.439 0.0864254 1.39842
378 2 F 6.3683 8.3092 23.404 0.00101685 0.000567985 -0.00987993 1.41509 27.1095 3.62768
375 2 F 6.08262 5.48652 22.1923 -0.00345417 -0.00473293 -0.00514635 -8.61137 -19.6954 55.021
352 1 C 6.23173 7.11888 23.9363 -0.000598269 0.00546814 0.0103475 -23.893 -5.89128 -23.774
383 2 F 0.904808 5.7564 18.5726 -0.00787359 0.0103463 -0.000157145 9.76581 -4.00096 -27.5775
921 1 C 44.4822 8.44234 24.5102 0.0067051 0.00275902 -0.00245441 -8.5589 15.57 -21.718
970 6 O 45.3438 5.7785 26.0291 -0.00315661 -0.00285004 0.00170448 -32.7674 17.4117 -5.26181
3135 1 C 6.72817 49.3368 17.8917 -0.00465511 -0.000820385 -0.00234293 0.445113 -23.4717 9.67177
4145 2 F 5.55232 44.2708 23.2699 -0.00531572 0.0060422 0.00414483 40.0941 15.1544 12.8099
2392 2 F 4.10947 10.5033 21.9991 0.0027673 0.00100644 -0.00287645 27.5087 17.429 -37.0585
4109 1 C 5.00256 44.1523 22.0768 -0.000517115 0.00728783 -0.000542726 -46.4939 -8.75123 11.0789
4132 2 F 1.91756 45.8803 26.1968 -0.00086473 -0.00369809 -0.00292517 -33.988 10.9591 -40.2545
4103 1 C 0.585936 45.7763 26.2836 -0.00818041 0.00227136 0.00204491 52.8148 31.4896 16.1177
960 2 F 44.1687 9.58083 21.6464 -0.0052399 0.00172386 -0.00152497 -5.94902 8.52088 -22.5614
2398 2 F 5.21717 10.1241 25.1409 -0.00464906 -0.00502507 0.00181697 1.77846 -23.3097 -8.14119
3744 6 O 10.4463 10.798 24.7152 0.00262961 -0.00070417 0.0015646 12.1109 49.734 -9.28417
2234 1 C 17.2426 10.103 24.0637 -0.00362635 3.29306e-06 0.00150508 27.2488 -28.6046 18.544
3731 2 F 11.9389 10.9197 17.7843 0.00212663 0.00166136 -0.00231495 -22.8739 30.9159 -12.2553
3165 2 F 5.72512 52.1845 17.9395 0.00386417 0.00464338 0.00320085 -16.615 -27.9188 -17.4237
967 5 O 44.3699 9.84559 24.3695 0.00211277 0.00132397 0.000226844 -39.2553 19.7898 15.6226
3684 1 C 22.015 4.39286 20.3664 -0.00429332 0.00215157 0.00358495 30.6052 -18.2224 -40.8635
2399 2 F 2.68274 10.6085 26.2236 0.000524243 0.00561025 0.0007549 -9.36176 48.1276 6.61533
3716 2 F 19.282 5.10334 20.3968 0.00632318 0.00311439 0.00519769 22.6372 -21.5767 16.9956
2312 2 F 15.4335 6.84686 21.9913 0.00368638 -0.00529257 -0.00115899 37.0171 1.52158 35.1467
4159 5 O 7.31584 44.2941 21.6416 0.00288775 0.000614122 -0.00221601 67.1728 -8.90139 -23.7263
3715 2 F 21.9158 5.92145 18.4352 -0.00146652 -0.00340915 -0.00144412 37.3781 -8.74967 33.2092
3170 2 F 7.939 47.7545 19.0748 -0.000116505 -0.0062656 0.00208332 18.169 -37.8028 24.0952
3693 1 C 14.7507 10.9145 19.5793 0.00224437 0.00268722 -0.00154331 -19.7533 33.6246 -15.8598
3728 2 F 14.8796 10.917 20.8947 -0.00262704 -0.0068042 -0.00121456 8.63411 33.6217 -5.87109
4112 1 C 11.104 44.1754 20.5673 0.00871609 0.000714995 0.0080897 24.7053 8.5977 9.09898
4111 1 C 9.89676 44.3401 21.4414 0.00291778 -0.00093217 -0.00813166 -40.9196 -39.1205 -14.3829
4181 4 H 58.1483 47.1644 25.9052 0.0343941 0.0253717 0.0102493 -0.0582789 -4.50471 -0.0313388
3136 1 C 8.04525 48.494 17.9869 0.00272045 0.00917445 -0.00236133 1.94575 18.0609 15.7356
4182 4 H 57.7618 46.2165 24.8019 -0.00963431 -0.0153228 -0.000392768 6.51924 -5.29962 0.545527
4180 8 O 57.4029 46.6324 25.6102 0.00700307 -0.00537857 -0.00145077 21.777 16.1926 -3.04531
4157 2 F 11.1281 44.9241 24.4479 0.000466654 -0.00399772 0.00309759 32.6412 39.7402 41.5585
380 2 F 7.60387 5.29264 24.4458 -0.0012384 -0.00504126 0.00278056 -34.5263 -20.519 24.5783
2295 1 C 12.6019 5.61219 18.3298 -0.00249704 0.000680282 0.00464453 39.8466 89.7056 -23.4964
3171 2 F 9.0515 49.2987 18.2195 -0.00153262 9.72935e-06 -0.000936388 30.9674 12.3545 34.2729
2320 2 F 11.5371 6.39674 18.4937 -0.00307053 -0.00057535 -0.00518843 -26.3833 -40.1316 38.1401
387 2 F 10.2772 5.80584 24.6709 -0.000618451 -0.00570843 -0.00393844 14.6758 5.98344 27.4132
379 2 F 8.36496 6.82494 23.1319 0.00398942 -0.00760674 0.000353024 5.00981 38.5411 -14.0231
353 1 C 7.63348 6.59111 24.1988 0.00318606 0.000339799 -0.00125483 56.886 33.9906 39.0154
4155 2 F 8.59245 46.8783 23.3933 0.00212447 -0.00408514 -0.00635219 25.9509 2.49713 -29.3016
386 2 F 10.4481 7.80025 24.2794 -0.00382944 0.00343772 0.00397422 0.774715 45.7079 -15.2643
3736 2 F 10.4857 9.06034 18.833 0.0014236 0.000656101 0.000645813 -4.89437 8.91336 -36.226
3735 2 F 11.0998 9.31297 20.8181 0.000298648 -0.00711714 -0.000678441 -31.2616 47.5504 16.8724
2319 2 F 13.4506 7.06311 20.0914 0.00215506 0.00474183 0.0062226 -8.20371 -46.9577 -52.4336
2294 1 C 13.5181 5.80846 19.5965 -0.00360735 -0.00742763 -0.00238138 -57.1654 -13.6597 36.0884
2314 2 F 13.0405 6.26378 22.69 0.000185675 -0.00089939 -0.000881859 30.0884 -27.1375 9.32502
2316 2 F 11.8245 4.87687 20.8975 -0.00331389 0.00221532 -0.00366125 -24.0678 46.8902 3.01403
2293 1 C 13.1511 4.86683 20.7833 0.00322333 0.00795115 -0.00573254 -35.3891 14.6493 -26.6887
3696 1 C 10.2834 9.79937 19.8782 -0.00372488 -0.000232345 -0.00324385 6.56855 -33.275 15.5169
356 1 C 10.0539 7.00664 25.2063 0.00460467 0.00243081 0.000646044 -18.125 6.57563 -9.98825
3734 2 F 9.02623 9.50308 20.2956 -0.0016881 0.00365097 0.000271745 8.27171 -7.92683 4.6
4156 2 F 11.1811 47.0392 24.0301 -0.00240055 0.00121362 -0.00449706 6.58452 42.3217 -40.3698
2292 1 C 13.7297 5.2459 22.1817 -0.00502501 -0.00102539 -0.0101458 40.2146 -35.6374 -11.1266
4114 1 C 10.4222 46.0485 24.4218 0.00329638 -0.000502971 0.000945013 -23.5947 -52.5397 -6.97973
2315 2 F 13.4822 4.21613 22.9683 0.00541748 0.000896768 -0.00568832 -21.803 -27.9261 -18.9337
4113 1 C 9.30978 45.75 23.3671 0.00244941 -0.00449709 0.00072731 -23.7366 63.0547 -2.96826
4160 5 O 9.91643 45.6076 22.0683 0.00318654 0.00443094 0.000452675 -12.3916 29.5633 -19.0615
3729 2 F 13.9485 9.8842 19.263 -0.00012154 0.00381385 -0.00147785 -18.4777 9.90854 -27.0493
4148 2 F 8.36171 44.9459 19.6039 -0.00242004 0.00105189 0.00235536 29.7955 -20.4212 38.1003
4164 9 S 9.80932 46.4574 26.0157 -0.00278608 0.00193708 -0.00109266 -56.4306 54.5002 24.8762
4153 2 F 11.2202 45.3402 19.9587 -0.00105312 -0.00140351 0.00286535 5.9141 18.47 -5.31959
355 1 C 8.49157 7.22291 25.3786 -0.00482505 -0.00290075 0.00422559 -5.32044 -32.5106 15.3336
390 2 F 12.7798 7.40164 25.1225 0.000982247 0.00713107 0.00262879 8.9607 -0.603922 14.4618
385 2 F 8.23965 8.49368 25.5269 -0.000618114 0.000130034 0.00236944 22.8063 42.8633 -37.8924
483 6 O 13.9819 2.37754 18.195 0.00109448 0.00564473 -0.00579584 -35.4048 -3.27846 3.36467
4241 4 H 59.1664 44.4105 24.2315 -0.00222415 0.0278502 -0.000845458 15.006 -7.44671 30.1954
2317 2 F 13.379 3.63035 20.4479 0.00268494 -0.0024038 -0.00237605 55.5854 -53.5417 11.3104
2321 2 F 12.2201 4.38933 18.2203 -0.00448909 0.00322542 -0.00023697 -11.4668 -5.81801 15.1557
4154 2 F 8.4458 44.8323 23.7141 -0.00540485 -0.00612998 0.0029073 38.4008 -57.7956 27.0678
4104 1 C 0.159886 45.2007 24.9433 0.00898837 -0.00287204 0.00866737 32.5108 -56.0739 34.9918
391 2 F 12.6048 5.48788 26.2409 0.00312741 0.00140776 0.00291811 7.74049 32.62 -32.6251
358 1 C 12.4431 6.83993 26.3005 -0.00263733 0.00774364 0.00210809 6.62065 20.5664 -35.8813
3739 2 F 8.6824 10.8011 22.6596 2.54751e-05 -0.00186163 0.00461701 16.4699 7.63101 10.6139
4105 1 C 0.323521 45.9918 23.6597 0.000468489 -0.00548566 -0.00249948 12.9211 -17.6466 -33.271
2488 2 F 44.0855 2.96236 17.8068 0.00280274 -0.00359378 -0.000235991 -0.591474 16.7248 -72.0839
4242 4 H 58.5823 44.4368 22.9462 0.0142347 -0.0309623 -0.00502025 -15.5321 20.6899 5.56387
481 5 O 19.2428 0.0647852 21.8578 -0.00493769 -0.000606618 0.000401495 3.86617 16.8975 32.2723
488 1 C 21.931 1.80279 25.6875 -0.000299386 -0.00430091 -0.00115047 21.3057 17.8754 -27.8921
3692 1 C 16.0655 10.6766 18.8736 -0.000755055 -8.831e-05 0.00160664 4.28989 21.6577 -21.1587
2266 2 F 18.2665 10.8486 22.0012 -0.00178867 -0.00520751 -0.0048751 24.522 -31.9416 -14.6933
2313 2 F 15.9792 4.81225 21.4262 -0.00119749 0.000816872 0.0034269 -21.5419 29.8696 28.9919
511 2 F 21.8691 3.00391 25.1246 -0.000894365 -0.00247481 -0.00285161 17.4048 9.91769 35.8758
3717 2 F 18.985 4.48964 18.3772 -0.000353262 -0.00244886 0.000958792 -16.1673 -10.1544 9.18906
471 2 F 19.7771 1.5193 20.237 0.00773906 0.00256971 -0.000389553 8.9006 -0.95903 43.786
3714 2 F 21.481 3.89348 18.1146 0.00694601 -0.00155666 -0.00223313 -42.4204 -24.2818 39.6906
2275 2 F 19.1682 4.05983 25.3389 0.00175363 -0.00723169 -0.00713181 25.3393 -16.9258 -19.5294
476 2 F 17.4786 1.93386 18.9185 0.0035271 -0.000551843 0.000947749 -36.1594 -43.0339 40.503
437 1 C 15.695 0.493851 18.3512 -0.00262136 0.00263358 -0.00407802 -4.42696 -6.78745 3.4461
2273 2 F 18.1147 5.94155 23.4442 0.00379069 -0.000922301 -0.00126974 20.1296 14.9857 -6.29988
2325 2 F 16.303 3.91101 23.7901 -0.00568673 0.00440342 -0.0039887 -59.3607 6.49681 -16.1444
2242 1 C 17.0897 6.09206 24.311 -0.00678905 0.00378075 0.00933673 -35.2666 9.02919 -23.326
2291 1 C 15.2617 5.54276 22.294 -0.00250753 0.000142331 0.000835085 -13.5981 12.8838 18.0739
3686 1 C 21.3211 4.84922 19.0377 -0.00369288 -0.000559828 0.00269678 -38.6941 28.0824 -54.5691
521 2 F 21.5079 1.38282 22.3824 -0.00603614 0.00477834 -0.00543467 -9.89279 34.4577 -23.1807
2268 2 F 17.3192 10.2686 25.3822 -0.000744859 0.00199077 -0.00305235 25.5927 -11.7106 -1.02005
2269 2 F 18.7404 8.32286 24.2474 -0.002095 -0.00196321 0.00361369 39.6766 -21.9715 -28.6812
3690 1 C 17.891 8.77718 18.6298 0.00503047 -0.000845309 -0.00651175 56.283 62.9135 41.155
2235 1 C 17.5272 8.58177 23.8423 -0.00243859 0.00144358 0.00284212 -42.2194 -9.7907 -10.0533
3719 2 F 20.1158 7.48832 19.454 0.00185302 0.00370243 0.0100365 0.632039 16.8277 15.9544
3691 1 C 16.4104 9.18376 18.6664 0.00994202 -0.00824719 -0.00419449 -22.0923 -34.7967 -51.0701
2237 1 C 18.6676 5.09651 25.957 0.000130825 -0.00922232 -0.00157206 -3.79305 13.5493 54.3773
2236 1 C 16.6112 7.59332 24.6281 0.00158299 0.00285393 0.0024456 34.3345 -31.0089 -61.5349
3687 1 C 19.7723 5.25138 19.1635 0.00321362 -0.00593374 -0.00262697 -0.62091 -3.02838 3.04278
2297 1 C 15.8556 5.2417 23.7307 0.000592958 -0.00886286 0.0012771 25.2858 -3.04933 2.89169
3688 1 C 19.4618 6.69524 18.61 -0.00460976 0.00854767 0.00280417 32.2397 -3.33787 10.375
520 2 F 19.988 1.82367 23.737 -0.00326416 -0.00438607 -0.000669536 35.9175 -22.0213 24.5086
2267 2 F 16.1166 10.4648 23.5877 0.00632298 -0.00160835 0.00073356 -11.3959 16.3701 -10.8681
477 2 F 15.9369 1.58174 20.5572 0.00282455 -0.00453295 0.00268622 50.8682 4.05905 3.68231
2285 5 O 17.3104 5.43599 25.5353 -0.00189918 -0.00233339 0.00248469 4.15518 14.4589 18.9258
2318 2 F 14.7444 5.55013 19.3444 -0.00130204 -0.000400946 -0.00259191 42.7532 -2.28052 -25.2514
3724 2 F 15.7492 8.42391 19.5653 0.0017857 -0.00107265 -0.00839089 6.74878 -5.17667 -7.91018
3709 2 F 21.2608 6.16699 21.6711 0.00249932 0.00658932 -0.00435157 -19.1857 -35.4573 -0.140165
3710 2 F 21.2763 3.58115 21.085 7.72015e-05 0.0019849 0.000471085 -30.8459 -31.667 -25.142
4240 8 O 58.5403 44.9578 23.788 0.00310278 -0.00174979 0.00264837 -33.4513 8.68966 -22.1411
2272 2 F 16.7104 7.90936 25.9111 0.000125498 0.00392004 0.00104743 27.241 24.1641 7.94559
2274 2 F 19.441 6.15767 25.7614 -0.00179289 -0.00330109 -0.00870028 15.4561 -38.3033 -28.6959
2271 2 F 15.3833 7.87795 24.2138 -0.00616086 -0.00231349 0.000647215 -27.1269 -28.0743 0.176082
3723 2 F 18.5332 9.4024 19.7171 0.000633397 0.00350966 0.00640143 -38.046 -75.7005 -63.5448
2265 2 F 19.4744 10.5506 23.673 0.000216593 0.00328351 0.00260607 13.2884 29.0514 37.8988
436 1 C 16.6363 1.03179 19.5021 0.000931599 -0.00913866 -0.00286889 20.231 3.32399 18.5342
493 1 C 20.8929 0.86168 23.3998 0.00217901 -0.00145851 0.00279723 -32.1038 9.96364 28.6331
2270 2 F 17.4411 8.37686 22.529 0.00020519 -0.00577163 -6.23913e-05 24.3577 34.7971 -8.09328
3720 2 F 17.5278 6.73802 19.828 -0.00471001 0.00152444 0.00260384 -25.2187 -24.9627 -29.277
3689 1 C 18.0437 7.20408 18.6796 -0.00833784 -0.00278108 -0.00169561 -53.045 39.3009 -6.97435
2324 2 F 14.9497 5.43076 24.7112 -0.00609406 0.00140974 0.000475961 10.4109 10.1995 11.8944
433 1 C 19.6714 0.20233 20.5359 -0.00112881 0.00719042 -0.00612795 32.165 -28.3809 -39.4808
4161 6 O 9.63722 47.8822 26.1654 -0.00124253 -0.000413042 -0.00100682 12.4683 -49.31 17.7833
4110 1 C 8.47714 44.1293 20.71 0.00108896 2.73596e-05 -0.000292279 -14.6649 4.22822 31.1741
3705 2 F 21.7238 6.1543 24.2199 0.00131746 0.000166748 0.00234612 4.53928 28.7946 -41.8964
487 1 C 21.9521 0.717804 24.5286 0.00343033 0.00414153 -0.00331984 5.52795 33.3368 12.5432
4163 6 O 8.8022 45.5538 26.4519 0.00286048 0.00141922 0.00266474 8.38488 -31.7 -29.0257
4133 2 F 0.124226 47.0236 26.4023 -0.00090425 -0.00452828 0.00510823 33.5145 -21.8399 37.0929
4158 3 H 11.8936 46.3212 26.2832 -0.0050311 0.0368471 -0.00772909 -4.52915 -14.338 14.3847
3721 2 F 17.3622 6.75108 17.5879 0.00302663 -0.00742485 -0.000117301 31.454 -34.1794 60.5157
4122 2 F 2.38851 45.6246 31.3159 0.00159396 -0.00169865 -0.00412764 -2.09033 27.6074 -30.7134
4100 1 C 0.998705 45.2946 28.8845 0.00151331 -0.00447713 -2.88944e-05 39.7653 -25.8327 -9.25578
4123 2 F 0.634673 44.7817 32.1853 -0.00046705 0.00200533 -0.00124876 11.5267 16.9386 -1.10372
4491 4 H 2.47279 7.09694 28.7049 0.00686253 0.000720271 0.000924832 -9.63219 -17.169 0.709125