LAMMPS data file via MDAnalysis

        4524  atoms
        4392  bonds
        8220  angles
       11592  dihedrals
           0  impropers

           9  atom types
           9  bond types
          15  angle types
          18  dihedral types
           0  improper types

0.000000 100.000000 xlo xhi
0.000000 100.000000 ylo yhi
0.000000 100.000000 zlo zhi

Masses

1   12.011   # C_000_NAFI
2   18.998   # F_021_NAFI
3    1.008   # H_064_NAFI
4    1.008   # H_O_H2O
5   15.999   # O_065_NAFI
6   15.999   # O_067_NAFI
7   15.999   # O_068_NAFI
8   15.999   # O_HH_H2O
9   32.067   # S_070_NAFI

Pair Coeffs

    1      0.06600000      3.50000000  # C_000_NAFI
    2      0.06000000      2.90000000  # F_021_NAFI
    3      0.00000000      0.00000000  # H_064_NAFI
    4      0.00000000      1.00000000  # H_O_H2O
    5      0.14000000      2.90000000  # O_065_NAFI
    6      0.17000000      2.96000000  # O_067_NAFI
    7      0.17000000      3.12000000  # O_068_NAFI
    8      0.10200000      3.18800000  # O_HH_H2O
    9      0.25000000      3.55000000  # S_070_NAFI

Bond Coeffs

    1    367.000000      1.332000  #  C_009-F_041 | NAFI
    2    268.000000      1.529000  #  C_010-C_009 | NAFI
    3    320.000000      1.410000  #  O_065-C_020 | NAFI
    4    367.000000      1.360000  #  F_056-C_016 | NAFI
    5    340.000000      1.770000  #  S_070-C_019 | NAFI
    6    700.000000      1.440000  #  O_067-S_070 | NAFI
    7    450.000000      1.670000  #  O_068-S_070 | NAFI
    8    553.000000      0.945000  #  H_064-O_068 | NAFI
    9    450.000000      0.957200  #  O-H   | H2O

Angle Coeffs

    1     50.000000    109.500000  #  C_010-C_009-F_041 | NAFI
    2     58.350000    112.700000  #  C_011-C_010-C_009 | NAFI
    3     50.000000    109.500000  #  O_065-C_020-C_014 | NAFI
    4     60.000000    109.500000  #  C_015-O_065-C_020 | NAFI
    5     59.700000    110.180000  #  F_054-C_015-O_065 | NAFI
    6     50.000000    114.700000  #  S_070-C_019-C_018 | NAFI
    7     74.000000    108.900000  #  O_067-S_070-C_019 | NAFI
    8     75.000000     96.400000  #  O_068-S_070-C_019 | NAFI
    9     74.000000    110.000000  #  H_064-O_068-S_070 | NAFI
   10     77.000000    109.100000  #  F_041-C_009-F_040 | NAFI
   11     51.140000    110.240000  #  O_066-C_016-F_056 | NAFI
   12     50.000000    109.500000  #  S_070-C_019-F_062 | NAFI
   13     74.000000    108.700000  #  O_068-S_070-O_067 | NAFI
   14    104.000000    123.000000  #  O_069-S_070-O_067 | NAFI
   15     55.000000    104.520000  #  H-O-H    | H2O

Dihedral Coeffs

    1     0.3000   0.0000   0.4000   0.0000  #  C_011-C_010-C_009-F_041 | NAFI
    2     6.6220   0.9480  -1.3880  -2.1180  #  C_012-C_011-C_010-C_009 | NAFI
    3    -2.5000   0.0000   0.2500   0.0000  #  F_042-C_010-C_009-F_041 | NAFI
    4     6.6220   0.9480  -1.3880  -2.1180  #  O_065-C_020-C_014-C_013 | NAFI
    5     0.2500  -0.2500   0.5000   0.0000  #  C_015-O_065-C_020-C_014 | NAFI
    6     1.3000  -0.5000   0.0000   0.0000  #  C_017-C_016-C_015-O_065 | NAFI
    7     0.3000   0.0000   0.4000   0.0000  #  F_054-C_015-O_065-C_020 | NAFI
    8     0.0000   0.0000   0.5400   0.0000  #  F_056-C_016-C_015-O_065 | NAFI
    9    -0.5500   0.0000   0.0000   0.0000  #  O_066-C_016-C_015-O_065 | NAFI
   10     0.0000   5.1240   0.0000   0.0000  #  F_060-C_018-O_066-C_016 | NAFI
   11    -2.5000   0.0000   0.2500   0.0000  #  F_062-C_019-C_018-O_066 | NAFI
   12    -2.5000   0.0000   0.2500   0.0000  #  S_070-C_019-C_018-O_066 | NAFI
   13     0.0000   0.0000   0.0000   0.0000  #  O_067-S_070-C_019-C_018 | NAFI
   14    -0.7500   0.0000   0.0000   0.0000  #  H_064-O_068-S_070-C_019 | NAFI
   15     0.0000   0.0000   0.7600   0.0000  #  C_018-O_066-C_016-F_056 | NAFI
   16    -2.5000   0.0000   0.2500   0.0000  #  S_070-C_019-C_018-F_060 | NAFI
   17     0.0000   0.0000   0.0000   0.0000  #  O_067-S_070-C_019-F_062 | NAFI
   18     0.7500   0.0000   0.0000   0.0000  #  H_064-O_068-S_070-O_067 | NAFI

Atoms

   1    0  1   0.0908154    7.41000  80.12000  35.55600
   2    0  1   0.1955224    8.13500  78.73900  35.77600
   3    0  1   0.1920704    9.49300  78.58100  34.98900
   4    0  1   0.1938754   10.22800  77.19800  35.20400
   5    0  1   0.1940534   11.59000  77.04100  34.41700
   6    0  1   0.1946574   12.31900  75.65300  34.61800
   7    0  1   0.5610344    6.06800  80.29200  36.32400
   8    0  1   0.1937284   13.68600  75.50300  33.83900
   9    0  1   0.1948754   14.40200  74.10300  34.00900
  10    0  1   0.1944094   15.76800  73.95700  33.22700
  11    0  1   0.1944714   16.48000  72.55400  33.38300
  12    0  1   0.1934144   17.78900  72.37700  32.51800
  13    0  1   0.1946254   18.56500  71.02200  32.75700
  14    0  1   0.1949434   19.71500  70.73800  31.71600
  15    0  1   0.2203294   20.60600  69.48400  32.04900
  16    0  1   0.4282624   22.81200  70.64500  29.37500
  17    0  1   0.2152634   24.03100  71.62500  29.42700
  18    0  1   0.4038134   25.39000  70.84000  29.52900
  19    0  1   0.3965404   24.88300  73.53200  27.94400
  20    0  1  -0.1925606   24.19800  74.51000  26.93700
  21    0  1   0.1877894   21.58400  69.03900  30.91900
  22    0  2  -0.1027126    7.14200  80.32400  34.25000
  23    0  2  -0.1027126    8.20500  81.14700  35.92300
  24    0  2  -0.0973066    7.29000  77.74800  35.42100
  25    0  2  -0.0973066    8.35800  78.57400  37.09600
  26    0  2  -0.0984526   10.32300  79.58300  35.34400
  27    0  2  -0.0984526    9.25400  78.75600  33.67300
  28    0  2  -0.0975096    9.39500  76.19900  34.84500
  29    0  2  -0.0975096   10.45900  77.02300  36.52100
  30    0  2  -0.0973506   12.42600  78.03300  34.78400
  31    0  2  -0.0973506   11.35800  77.22900  33.10200
  32    0  2  -0.0971816   11.48400  74.66300  34.24100
  33    0  2  -0.0971816   12.54300  75.45700  35.93400
  34    0  2  -0.1443506    5.14600  79.37800  35.96700
  35    0  2  -0.1443506    5.64200  81.28100  36.11000
  36    0  2  -0.1443446    6.22000  80.20800  37.66000
  37    0  2  -0.0971336   14.52800  76.47800  34.23900
  38    0  2  -0.0971336   13.46900  75.72700  32.52600
  39    0  2  -0.0972026   13.55600  73.13200  33.60700
  40    0  2  -0.0972026   14.62300  73.87300  35.31900
  41    0  2  -0.0967826   16.61500  74.92300  33.64000
  42    0  2  -0.0967826   15.55300  74.19800  31.91700
  43    0  2  -0.0974806   15.60900  71.57800  33.05300
  44    0  2  -0.0974806   16.77900  72.35100  34.68400
  45    0  2  -0.0968046   18.63300  73.40200  32.76600
  46    0  2  -0.0968046   17.46500  72.48500  31.21300
  47    0  2  -0.0963306   17.69800  69.98900  32.72900
  48    0  2  -0.0963306   19.08200  71.02600  34.00400
  49    0  2  -0.0964216   20.52100  71.81700  31.62300
  50    0  2  -0.0964216   19.17000  70.57800  30.49300
  51    0  2  -0.0932806   19.84700  68.41200  32.35100
  52    0  2  -0.0932806   21.35100  69.71500  33.15000
  53    0  2  -0.0508386   20.92600  68.64400  29.81000
  54    0  2  -0.1010786   21.70400  71.32500  29.01700
  55    0  2  -0.1010786   23.00400  69.71600  28.41800
  56    0  2  -0.0651436   23.88200  72.39300  30.53100
  57    0  2  -0.1296656   25.87400  70.63100  30.76800
  58    0  2  -0.1296656   26.27500  71.62800  28.88800
  59    0  2  -0.1296656   25.42100  69.64000  28.92000
  60    0  2  -0.1043146   26.01300  73.03700  27.40400
  61    0  2  -0.1043146   25.23600  74.20000  29.05900
  62    0  2  -0.0912686   23.10200  75.03900  27.51600
  63    0  2  -0.0912686   23.75300  73.82000  25.86500
  64    0  3   0.5509804   25.67200  74.41800  24.85400
  65    0  5  -0.4250366   22.62200  70.04000  30.68900
  66    0  5  -0.4017446   23.94000  72.45400  28.22200
  67    0  6  -0.4513626   24.40700  76.69600  25.59400
  68    0  7  -0.6545506   26.20200  75.08500  25.32900
  69    0  6  -0.4513626   26.06500  76.37300  27.43900
  70    0  9   1.4275184   25.26700  75.84300  26.36800
  71    0  1   0.1950294   23.70300  67.56500  30.66200
  72    0  1   0.1988454   24.42700  66.18400  30.88200
  73    0  1   0.1937824   25.78500  66.02500  30.09500
  74    0  1   0.1938204   26.52000  64.64300  30.31000
  75    0  1   0.1940534   27.88200  64.48600  29.52300
  76    0  1   0.1946574   28.61100  63.09800  29.72400
  77    0  1   0.1991654   22.36000  67.73700  31.43000
  78    0  1   0.1937284   29.97900  62.94700  28.94500
  79    0  1   0.1948754   30.69400  61.54800  29.11400
  80    0  1   0.1944094   32.06000  61.40200  28.33300
  81    0  1   0.1944714   32.77200  59.99900  28.48900
  82    0  1   0.1934144   34.08100  59.82200  27.62400
  83    0  1   0.1946254   34.85700  58.46700  27.86200
  84    0  1   0.1949434   36.00700  58.18300  26.82200
  85    0  1   0.2203294   36.89900  56.92900  27.15400
  86    0  1   0.4282624   39.10400  58.09000  24.48100
  87    0  1   0.2152634   40.32300  59.07000  24.53300
  88    0  1   0.4038134   41.68300  58.28500  24.63500
  89    0  1   0.3965404   41.17600  60.97700  23.05000
  90    0  1  -0.1925606   40.49000  61.95500  22.04300
  91    0  1   0.1877894   37.87600  56.48400  26.02400
  92    0  2  -0.0988446   23.43400  67.76900  29.35600
  93    0  2  -0.0988446   24.49700  68.59100  31.02800
  94    0  2  -0.0952646   23.58300  65.19200  30.52700
  95    0  2  -0.0952646   24.65000  66.01900  32.20200
  96    0  2  -0.0984776   26.61500  67.02800  30.45000
  97    0  2  -0.0984776   25.54700  66.20100  28.77800
  98    0  2  -0.0975096   25.68700  63.64400  29.95100
  99    0  2  -0.0975096   26.75200  64.46800  31.62600
 100    0  2  -0.0973506   28.71800  65.47800  29.89000
 101    0  2  -0.0973506   27.65000  64.67400  28.20700
 102    0  2  -0.0971816   27.77700  62.10800  29.34700
 103    0  2  -0.0971816   28.83600  62.90200  31.03900
 104    0  2  -0.0892246   21.43800  66.82300  31.07200
 105    0  2  -0.0892246   22.51300  67.65300  32.76500
 106    0  2  -0.0971336   30.82100  63.92300  29.34400
 107    0  2  -0.0971336   29.76200  63.17100  27.63100
 108    0  2  -0.0972026   29.84800  60.57700  28.71200
 109    0  2  -0.0972026   30.91500  61.31800  30.42500
 110    0  2  -0.0967826   32.90700  62.36800  28.74600
 111    0  2  -0.0967826   31.84600  61.64300  27.02300
 112    0  2  -0.0974806   31.90200  59.02300  28.15800
 113    0  2  -0.0974806   33.07100  59.79600  29.78900
 114    0  2  -0.0968046   34.92500  60.84700  27.87100
 115    0  2  -0.0968046   33.75800  59.93000  26.31800
 116    0  2  -0.0963306   33.99100  57.43400  27.83500
 117    0  2  -0.0963306   35.37400  58.47100  29.10900
 118    0  2  -0.0964216   36.81300  59.26200  26.72800
 119    0  2  -0.0964216   35.46200  58.02300  25.59800
 120    0  2  -0.0932806   36.13900  55.85700  27.45700
 121    0  2  -0.0932806   37.64300  57.16000  28.25500
 122    0  2  -0.0508386   37.21800  56.08800  24.91600
 123    0  2  -0.1010786   37.99600  58.76900  24.12200
 124    0  2  -0.1010786   39.29700  57.16100  23.52400
 125    0  2  -0.0651436   40.17400  59.83800  25.63600
 126    0  2  -0.1296656   42.16600  58.07600  25.87400
 127    0  2  -0.1296656   42.56700  59.07300  23.99400
 128    0  2  -0.1296656   41.71300  57.08500  24.02500
 129    0  2  -0.1043146   42.30600  60.48200  22.51000
 130    0  2  -0.1043146   41.52900  61.64500  24.16400
 131    0  2  -0.0912686   39.39400  62.48400  22.62200
 132    0  2  -0.0912686   40.04500  61.26500  20.97000
 133    0  3   0.5509804   41.96500  61.86300  19.96000
 134    0  5  -0.4250366   38.91400  57.48500  25.79500
 135    0  5  -0.4017446   40.23300  59.89900  23.32800
 136    0  6  -0.4513626   40.70000  64.14100  20.70000
 137    0  7  -0.6545506   42.49500  62.53000  20.43500
 138    0  6  -0.4513626   42.35700  63.81800  22.54400
 139    0  9   1.4275184   41.56000  63.28800  21.47300
 140    0  1   0.1950294   39.99500  55.01100  25.76700
 141    0  1   0.1988454   40.72000  53.63000  25.98700
 142    0  1   0.1937824   42.07800  53.47100  25.20000
 143    0  1   0.1938204   42.81300  52.08900  25.41500
 144    0  1   0.1940534   44.17500  51.93200  24.62800
 145    0  1   0.1946574   44.90400  50.54400  24.82900
 146    0  1   0.1991654   38.65300  55.18200  26.53500
 147    0  1   0.1937284   46.27100  50.39300  24.05000
 148    0  1   0.1948754   46.98700  48.99300  24.21900
 149    0  1   0.1944094   48.35300  48.84700  23.43800
 150    0  1   0.1944714   49.06500  47.44500  23.59400
 151    0  1   0.1934144   50.37400  47.26800  22.72900
 152    0  1   0.1946254   51.15000  45.91300  22.96700
 153    0  1   0.1949434   52.30000  45.62900  21.92700
 154    0  1   0.2203294   53.19100  44.37500  22.25900
 155    0  1   0.4282624   55.39700  45.53500  19.58600
 156    0  1   0.2152634   56.61600  46.51600  19.63800
 157    0  1   0.4038134   57.97600  45.73100  19.74000
 158    0  1   0.3965404   57.46800  48.42300  18.15500
 159    0  1  -0.1925606   56.78300  49.40000  17.14800
 160    0  1   0.1877894   54.16900  43.93000  21.12900
 161    0  2  -0.0988446   39.72700  55.21400  24.46100
 162    0  2  -0.0988446   40.79000  56.03700  26.13300
 163    0  2  -0.0952646   39.87500  52.63800  25.63200
 164    0  2  -0.0952646   40.94300  53.46500  27.30700
 165    0  2  -0.0984776   42.90800  54.47300  25.55500
 166    0  2  -0.0984776   41.84000  53.64600  23.88300
 167    0  2  -0.0975096   41.98000  51.09000  25.05600
 168    0  2  -0.0975096   43.04500  51.91400  26.73100
 169    0  2  -0.0973506   45.01100  52.92400  24.99500
 170    0  2  -0.0973506   43.94300  52.12000  23.31200
 171    0  2  -0.0971816   44.06900  49.55300  24.45200
 172    0  2  -0.0971816   45.12900  50.34800  26.14500
 173    0  2  -0.0892246   37.73100  54.26800  26.17700
 174    0  2  -0.0892246   38.80600  55.09900  27.87000
 175    0  2  -0.0971336   47.11400  51.36800  24.44900
 176    0  2  -0.0971336   46.05500  50.61700  22.73600
 177    0  2  -0.0972026   46.14100  48.02200  23.81700
 178    0  2  -0.0972026   47.20800  48.76400  25.53000
 179    0  2  -0.0967826   49.20000  49.81300  23.85100
 180    0  2  -0.0967826   48.13800  49.08900  22.12800
 181    0  2  -0.0974806   48.19400  46.46900  23.26400
 182    0  2  -0.0974806   49.36400  47.24200  24.89400
 183    0  2  -0.0968046   51.21800  48.29200  22.97600
 184    0  2  -0.0968046   50.05000  47.37600  21.42300
 185    0  2  -0.0963306   50.28300  44.87900  22.94000
 186    0  2  -0.0963306   51.66700  45.91700  24.21400
 187    0  2  -0.0964216   53.10600  46.70800  21.83300
 188    0  2  -0.0964216   51.75500  45.46900  20.70300
 189    0  2  -0.0932806   52.43200  43.30200  22.56200
 190    0  2  -0.0932806   53.93600  44.60600  23.36100
 191    0  2  -0.0508386   53.51100  43.53400  20.02100
 192    0  2  -0.1010786   54.28900  46.21500  19.22700
 193    0  2  -0.1010786   55.58900  44.60600  18.62900
 194    0  2  -0.0651436   56.46700  47.28300  20.74100
 195    0  2  -0.1296656   58.45900  45.52100  20.97900
 196    0  2  -0.1296656   58.86000  46.51900  19.09900
 197    0  2  -0.1296656   58.00600  44.53100  19.13000
 198    0  2  -0.1043146   58.59800  47.92700  17.61500
 199    0  2  -0.1043146   57.82200  49.09100  19.27000
 200    0  2  -0.0912686   55.68700  49.93000  17.72700
 201    0  2  -0.0912686   56.33800  48.71100  16.07500
 202    0  3   0.5509804   58.25800  49.30900  15.06500
 203    0  5  -0.4250366   55.20700  44.93000  20.90000
 204    0  5  -0.4017446   56.52500  47.34500  18.43300
 205    0  6  -0.4513626   56.99200  51.58700  15.80500
 206    0  7  -0.6545506   58.78700  49.97500  15.54000
 207    0  6  -0.4513626   58.65000  51.26400  17.64900
 208    0  9   1.4275184   57.85200  50.73400  16.57800
 209    0  1   0.1950294   56.28700  42.45500  20.87200
 210    0  1   0.1988454   57.01200  41.07400  21.09200
 211    0  1   0.1937824   58.37000  40.91600  20.30500
 212    0  1   0.1938204   59.10500  39.53300  20.52000
 213    0  1   0.1940534   60.46700  39.37600  19.73300
 214    0  1   0.1946574   61.19600  37.98800  19.93400
 215    0  1   0.1991654   54.94500  42.62700  21.64000
 216    0  1   0.1937284   62.56300  37.83700  19.15500
 217    0  1   0.1948754   63.27900  36.43800  19.32400
 218    0  1   0.1944094   64.64500  36.29200  18.54300
 219    0  1   0.1944714   65.35700  34.88900  18.69900
 220    0  1   0.1934144   66.66600  34.71200  17.83400
 221    0  1   0.1946254   67.44200  33.35700  18.07200
 222    0  1   0.1949434   68.59200  33.07300  17.03200
 223    0  1   0.2203294   69.48300  31.81900  17.36400
 224    0  1   0.4282624   71.68900  32.98000  14.69100
 225    0  1   0.2152634   72.90800  33.96000  14.74300
 226    0  1   0.4038134   74.26700  33.17500  14.84500
 227    0  1   0.3965404   73.76000  35.86700  13.26000
 228    0  1  -0.1925606   73.07500  36.84500  12.25300
 229    0  1   0.1877894   70.46100  31.37400  16.23400
 230    0  2  -0.0988446   56.01900  42.65900  19.56600
 231    0  2  -0.0988446   57.08200  43.48200  21.23800
 232    0  2  -0.0952646   56.16700  40.08200  20.73700
 233    0  2  -0.0952646   57.23500  40.90900  22.41200
 234    0  2  -0.0984776   59.20000  41.91800  20.66000
 235    0  2  -0.0984776   58.13100  41.09100  18.98800
 236    0  2  -0.0975096   58.27200  38.53400  20.16100
 237    0  2  -0.0975096   59.33600  39.35800  21.83600
 238    0  2  -0.0973506   61.30300  40.36800  20.10000
 239    0  2  -0.0973506   60.23500  39.56400  18.41700
 240    0  2  -0.0971816   60.36100  36.99800  19.55700
 241    0  2  -0.0971816   61.42000  37.79200  21.24900
 242    0  2  -0.0892246   54.02300  41.71300  21.28200
 243    0  2  -0.0892246   55.09700  42.54300  22.97500
 244    0  2  -0.0971336   63.40500  38.81300  19.55400
 245    0  2  -0.0971336   62.34600  38.06200  17.84100
 246    0  2  -0.0972026   62.43300  35.46700  18.92200
 247    0  2  -0.0972026   63.50000  36.20800  20.63500
 248    0  2  -0.0967826   65.49200  37.25800  18.95600
 249    0  2  -0.0967826   64.43000  36.53300  17.23300
 250    0  2  -0.0974806   64.48600  33.91300  18.36800
 251    0  2  -0.0974806   65.65600  34.68600  19.99900
 252    0  2  -0.0968046   67.51000  35.73700  18.08100
 253    0  2  -0.0968046   66.34200  34.82000  16.52800
 254    0  2  -0.0963306   66.57500  32.32400  18.04400
 255    0  2  -0.0963306   67.95900  33.36100  19.31900
 256    0  2  -0.0964216   69.39800  34.15200  16.93800
 257    0  2  -0.0964216   68.04700  32.91300  15.80800
 258    0  2  -0.0932806   68.72400  30.74700  17.66700
 259    0  2  -0.0932806   70.22800  32.05000  18.46500
 260    0  2  -0.0508386   69.80300  30.97800  15.12600
 261    0  2  -0.1010786   70.58100  33.66000  14.33200
 262    0  2  -0.1010786   71.88100  32.05100  13.73400
 263    0  2  -0.0651436   72.75900  34.72800  15.84600
 264    0  2  -0.1296656   74.75100  32.96600  16.08400
 265    0  2  -0.1296656   75.15200  33.96300  14.20400
 266    0  2  -0.1296656   74.29800  31.97500  14.23500
 267    0  2  -0.1043146   74.89000  35.37200  12.72000
 268    0  2  -0.1043146   74.11300  36.53500  14.37400
 269    0  2  -0.0912686   71.97900  37.37400  12.83200
 270    0  2  -0.0912686   72.63000  36.15500  11.18000
 271    0  3   0.5509804   74.54900  36.75300  10.17000
 272    0  5  -0.4250366   71.49900  32.37500  16.00500
 273    0  5  -0.4017446   72.81700  34.78900  13.53700
 274    0  6  -0.4513626   73.28400  39.03100  10.91000
 275    0  7  -0.6545506   75.07900  37.42000  10.64500
 276    0  6  -0.4513626   74.94200  38.70800  12.75400
 277    0  9   1.4275184   74.14400  38.17800  11.68300
 278    0  1   0.1950294   72.58100  29.90000  15.97600
 279    0  1   0.1988454   73.30500  28.51900  16.19700
 280    0  1   0.1937824   74.66300  28.36100  15.40900
 281    0  1   0.1938204   75.39800  26.97800  15.62400
 282    0  1   0.1940534   76.76000  26.82100  14.83800
 283    0  1   0.1946574   77.49000  25.43300  15.03800
 284    0  1   0.1991654   71.23800  30.07200  16.74500
 285    0  1   0.1937284   78.85700  25.28200  14.25900
 286    0  1   0.1948754   79.57300  23.88300  14.42900
 287    0  1   0.1944094   80.93800  23.73700  13.64700
 288    0  1   0.1944714   81.65100  22.33400  13.80400
 289    0  1   0.1931834   82.95900  22.15700  12.93900
 290    0  1   0.1931184   83.73500  20.80200  13.17700
 291    0  1   0.1927584   84.88600  20.51800  12.13700
 292    0  1   0.1275254   85.77700  19.26400  12.46900
 293    0  1   0.4454664   87.98200  20.42500   9.79600
 294    0  1   0.2110574   89.20100  21.40500   9.84800
 295    0  1   0.4038824   90.56100  20.62000   9.94900
 296    0  1   0.3965404   90.05400  23.31200   8.36400
 297    0  1  -0.1925606   89.36800  24.29000   7.35700
 298    0  1   0.5503494   86.75400  18.81900  11.33900
 299    0  2  -0.0988446   72.31300  30.10400  14.67100
 300    0  2  -0.0988446   73.37500  30.92700  16.34300
 301    0  2  -0.0952646   72.46100  27.52700  15.84200
 302    0  2  -0.0952646   73.52900  28.35400  17.51700
 303    0  2  -0.0984776   75.49300  29.36300  15.76500
 304    0  2  -0.0984776   74.42500  28.53600  14.09300
 305    0  2  -0.0975096   74.56500  25.97900  15.26600
 306    0  2  -0.0975096   75.63000  26.80300  16.94100
 307    0  2  -0.0973506   77.59600  27.81300  15.20500
 308    0  2  -0.0973506   76.52900  27.00900  13.52200
 309    0  2  -0.0971816   76.65500  24.44300  14.66200
 310    0  2  -0.0971816   77.71400  25.23700  16.35400
 311    0  2  -0.0892246   70.31600  29.15800  16.38700
 312    0  2  -0.0892246   71.39100  29.98800  18.08000
 313    0  2  -0.0971336   79.69900  26.25800  14.65900
 314    0  2  -0.0971336   78.64000  25.50700  12.94600
 315    0  2  -0.0972026   78.72700  22.91200  14.02700
 316    0  2  -0.0972026   79.79400  23.65300  15.74000
 317    0  2  -0.0967826   81.78500  24.70300  14.06100
 318    0  2  -0.0967826   80.72400  23.97800  12.33800
 319    0  2  -0.0974806   80.78000  21.35800  13.47300
 320    0  2  -0.0974806   81.94900  22.13100  15.10400
 321    0  2  -0.0968046   83.80300  23.18200  13.18600
 322    0  2  -0.0968046   82.63600  22.26500  11.63300
 323    0  2  -0.0982646   82.86900  19.76900  13.14900
 324    0  2  -0.0982646   84.25200  20.80600  14.42400
 325    0  2  -0.0969396   85.69100  21.59700  12.04300
 326    0  2  -0.0969396   84.34000  20.35800  10.91300
 327    0  2  -0.0977386   85.01800  18.19200  12.77200
 328    0  2  -0.0977386   86.52100  19.49500  13.57000
 329    0  2  -0.0848146   87.28800  17.92400  11.69000
 330    0  2  -0.0848146   86.09600  18.42300  10.23100
 331    0  2  -0.1078446   86.87400  21.10500   9.43700
 332    0  2  -0.1078446   88.17500  19.49600   8.83900
 333    0  2  -0.0660576   89.05200  22.17300  10.95100
 334    0  2  -0.1296656   91.04400  20.41100  11.18800
 335    0  2  -0.1296656   91.44500  21.40800   9.30800
 336    0  2  -0.1296656   90.59100  19.42000   9.34000
 337    0  2  -0.1043146   91.18400  22.81700   7.82500
 338    0  2  -0.1043146   90.40700  23.98000   9.47900
 339    0  2  -0.0912686   88.27200  24.81900   7.93700
 340    0  2  -0.0912686   88.92400  23.60000   6.28500
 341    0  3   0.5509804   90.84300  24.19800   5.27400
 342    0  5  -0.5168376   87.79300  19.82000  11.11000
 343    0  5  -0.4022056   89.11100  22.23400   8.64200
 344    0  6  -0.4513626   89.57800  26.47600   6.01500
 345    0  7  -0.6545506   91.37300  24.86500   5.74900
 346    0  6  -0.4513626   91.23500  26.15300   7.85900
 347    0  9   1.4275184   90.43800  25.62300   6.78800
 348    1  1   0.0908154   11.32200   4.51100  80.61800
 349    1  1   0.1955224   12.86200   4.34300  80.33200
 350    1  1   0.1920704   13.55800   5.62300  79.72500
 351    1  1   0.1938754   15.10300   5.46400  79.43500
 352    1  1   0.1940534   15.80000   6.74700  78.83000
 353    1  1   0.1946574   17.34200   6.58700  78.52400
 354    1  1   0.5610344   10.62100   3.25700  81.21500
 355    1  1   0.1937284   18.03900   7.87500  77.92900
 356    1  1   0.1948754   19.57400   7.70800  77.58900
 357    1  1   0.1944094   20.26600   8.99700  76.99300
 358    1  1   0.1944714   21.79800   8.83100  76.63900
 359    1  1   0.1934144   22.45700  10.08800  75.94800
 360    1  1   0.1946254   24.01200   9.96800  75.69600
 361    1  1   0.1949434   24.61300  11.10400  74.78300
 362    1  1   0.2203294   26.18300  11.09500  74.67100
 363    1  1   0.4282624   25.84500  14.33700  73.01800
 364    1  1   0.2152634   25.81600  15.78000  73.62400
 365    1  1   0.4038134   27.23600  16.45400  73.55700
 366    1  1   0.3965404   24.44400  17.89900  73.18600
 367    1  1  -0.1925606   23.02100  18.16500  72.60000
 368    1  1   0.1877894   26.78400  12.04300  73.58900
 369    1  2  -0.1027126   10.65300   4.83500  79.49300
 370    1  2  -0.1027126   11.09800   5.53000  81.47400
 371    1  2  -0.0973066   13.03400   3.29800  79.49500
 372    1  2  -0.0973066   13.47900   3.99800  81.48000
 373    1  2  -0.0984526   13.36900   6.66100  80.56500
 374    1  2  -0.0984526   12.92400   5.96000  78.58200
 375    1  2  -0.0975096   15.28600   4.42600  78.59300
 376    1  2  -0.0975096   15.73200   5.12200  80.57800
 377    1  2  -0.0973506   15.62600   7.78200  79.67700
 378    1  2  -0.0973506   15.16100   7.09600  77.69400
 379    1  2  -0.0971816   17.51300   5.55700  77.66900
 380    1  2  -0.0971816   17.98300   6.22800  79.65600
 381    1  2  -0.1443506   10.68700   2.18800  80.39900
 382    1  2  -0.1443506    9.55600   3.47100  81.38100
 383    1  2  -0.1443446   11.13900   2.88900  82.40300
 384    1  2  -0.0971336   17.89100   8.89500  78.79900
 385    1  2  -0.0971336   17.38200   8.25200  76.81200
 386    1  2  -0.0972026   19.71700   6.68700  76.71800
 387    1  2  -0.0972026   20.23700   7.33200  78.70200
 388    1  2  -0.0967826   20.13100  10.01300  77.87200
 389    1  2  -0.0967826   19.59800   9.38400  75.88600
 390    1  2  -0.0974806   21.94900   7.76300  75.82700
 391    1  2  -0.0974806   22.48300   8.53400  77.76300
 392    1  2  -0.0968046   22.23000  11.18500  76.70200
 393    1  2  -0.0968046   21.82900  10.32000  74.77600
 394    1  2  -0.0963306   24.29300   8.77400  75.13400
 395    1  2  -0.0963306   24.65100   9.96600  76.88500
 396    1  2  -0.0964216   24.23000  12.31200  75.24700
 397    1  2  -0.0964216   24.08500  10.99900  73.54600
 398    1  2  -0.0932806   26.64700   9.85700  74.40400
 399    1  2  -0.0932806   26.74000  11.43600  75.85200
 400    1  2  -0.0508386   26.40100  11.69300  72.34500
 401    1  2  -0.1010786   24.58200  13.89900  72.84000
 402    1  2  -0.1010786   26.40600  14.35900  71.79300
 403    1  2  -0.0651436   25.44300  15.66500  74.91800
 404    1  2  -0.1296656   28.01600  16.32400  74.64700
 405    1  2  -0.1296656   26.97000  17.76700  73.41700
 406    1  2  -0.1296656   28.00600  16.09600  72.51300
 407    1  2  -0.1043146   25.33300  18.74600  72.63300
 408    1  2  -0.1043146   24.44300  18.13500  74.51200
 409    1  2  -0.0912686   22.13700  17.34800  73.20600
 410    1  2  -0.0912686   22.99800  17.83100  71.29200
 411    1  3   0.5509804   23.37800  20.00700  70.86800
 412    1  5  -0.4250366   26.55700  13.44500  73.92800
 413    1  5  -0.4017446   24.79800  16.51900  72.87100
 414    1  6  -0.4513626   21.10000  19.85600  72.32500
 415    1  7  -0.6545506   23.30500  20.60000  71.63800
 416    1  6  -0.4513626   22.81600  20.41000  74.05800
 417    1  9   1.4275184   22.46500  19.87000  72.77400
 418    1  1   0.1950294   29.07400  13.11200  73.00700
 419    1  1   0.1988454   30.61400  12.94400  72.72100
 420    1  1   0.1937824   31.31000  14.22300  72.11500
 421    1  1   0.1938204   32.85500  14.06500  71.82500
 422    1  1   0.1940534   33.55200  15.34800  71.21900
 423    1  1   0.1946574   35.09400  15.18700  70.91400
 424    1  1   0.1991654   28.37300  11.85700  73.60500
 425    1  1   0.1937284   35.79100  16.47500  70.31800
 426    1  1   0.1948754   37.32600  16.30800  69.97800
 427    1  1   0.1944094   38.01800  17.59800  69.38200
 428    1  1   0.1944714   39.55000  17.43100  69.02800
 429    1  1   0.1934144   40.20900  18.68800  68.33700
 430    1  1   0.1946254   41.76400  18.56800  68.08500
 431    1  1   0.1949434   42.36600  19.70400  67.17200
 432    1  1   0.2203294   43.93600  19.69500  67.06100
 433    1  1   0.4282624   43.59700  22.93700  65.40800
 434    1  1   0.2152634   43.56800  24.38000  66.01300
 435    1  1   0.4038134   44.98800  25.05500  65.94700
 436    1  1   0.3965404   42.19600  26.49900  65.57500
 437    1  1  -0.1925606   40.77300  26.76500  64.98900
 438    1  1   0.1877894   44.53600  20.64400  65.97900
 439    1  2  -0.0988446   28.40500  13.43500  71.88200
 440    1  2  -0.0988446   28.85000  14.13000  73.86300
 441    1  2  -0.0952646   30.78600  11.89800  71.88500
 442    1  2  -0.0952646   31.23200  12.59800  73.87000
 443    1  2  -0.0984776   31.12100  15.26200  72.95400
 444    1  2  -0.0984776   30.67600  14.56000  70.97200
 445    1  2  -0.0975096   33.03800  13.02600  70.98300
 446    1  2  -0.0975096   33.48400  13.72200  72.96700
 447    1  2  -0.0973506   33.37800  16.38300  72.06600
 448    1  2  -0.0973506   32.91300  15.69700  70.08300
 449    1  2  -0.0971816   35.26500  14.15700  70.05900
 450    1  2  -0.0971816   35.73500  14.82900  72.04500
 451    1  2  -0.0892246   28.43900  10.78800  72.78800
 452    1  2  -0.0892246   28.89100  11.49000  74.79200
 453    1  2  -0.0971336   35.64300  17.49600  71.18800
 454    1  2  -0.0971336   35.13400  16.85200  69.20100
 455    1  2  -0.0972026   37.46900  15.28700  69.10700
 456    1  2  -0.0972026   37.98900  15.93200  71.09100
 457    1  2  -0.0967826   37.88300  18.61300  70.26100
 458    1  2  -0.0967826   37.35000  17.98400  68.27600
 459    1  2  -0.0974806   39.70100  16.36400  68.21700
 460    1  2  -0.0974806   40.23500  17.13400  70.15300
 461    1  2  -0.0968046   39.98300  19.78500  69.09100
 462    1  2  -0.0968046   39.58100  18.92000  67.16600
 463    1  2  -0.0963306   42.04500  17.37500  67.52300
 464    1  2  -0.0963306   42.40300  18.56600  69.27400