LAMMPS data file generated with LigParGen (israel.cabezadevaca@yale.edu)

      48 atoms
      51 bonds
      84 angles
     125 dihedrals
      24 impropers

      48 atom types
      51 bond types
      84 angle types
     125 dihedral types
      24 improper types

  -10.031000    39.969000 xlo xhi
   -3.921000    46.079000 ylo yhi
   -4.294000    45.706000 zlo zhi

Masses

       1     12.011
       2     12.011
       3     12.011
       4     12.011
       5     12.011
       6     12.011
       7     12.011
       8     12.011
       9     12.011
      10     12.011
      11     12.011
      12     12.011
      13     12.011
      14     12.011
      15     12.011
      16     12.011
      17     12.011
      18     12.011
      19     12.011
      20     12.011
      21     12.011
      22     12.011
      23     12.011
      24     12.011
      25     18.998
      26     18.998
      27     18.998
      28     12.011
      29     12.011
      30      1.008
      31      1.008
      32      1.008
      33      1.008
      34      1.008
      35      1.008
      36      1.008
      37      1.008
      38      1.008
      39      1.008
      40      1.008
      41      1.008
      42      1.008
      43      1.008
      44      1.008
      45      1.008
      46      1.008
      47      1.008
      48      1.008

Pair Coeffs

       1      0.070  3.5500000
       2      0.070  3.5500000
       3      0.070  3.5500000
       4      0.070  3.5500000
       5      0.066  3.5000000
       6      0.070  3.5500000
       7      0.070  3.5500000
       8      0.070  3.5500000
       9      0.070  3.5500000
      10      0.070  3.5500000
      11      0.070  3.5500000
      12      0.070  3.5500000
      13      0.070  3.5500000
      14      0.070  3.5500000
      15      0.070  3.5500000
      16      0.070  3.5500000
      17      0.070  3.5500000
      18      0.070  3.5500000
      19      0.070  3.5500000
      20      0.070  3.5500000
      21      0.070  3.5500000
      22      0.070  3.5500000
      23      0.070  3.5500000
      24      0.066  3.5000000
      25      0.060  2.9000000
      26      0.060  2.9000000
      27      0.060  2.9000000
      28      0.070  3.5500000
      29      0.070  3.5500000
      30      0.030  2.4200000
      31      0.030  2.4200000
      32      0.030  2.4200000
      33      0.030  2.5000000
      34      0.030  2.4200000
      35      0.030  2.4200000
      36      0.030  2.4200000
      37      0.030  2.4200000
      38      0.030  2.4200000
      39      0.030  2.4200000
      40      0.030  2.4200000
      41      0.030  2.4200000
      42      0.030  2.4200000
      43      0.030  2.4200000
      44      0.030  2.4200000
      45      0.030  2.4200000
      46      0.030  2.4200000
      47      0.030  2.4200000
      48      0.030  2.4200000

Bond Coeffs

       1   469.0000     1.4000
       2   385.0000     1.4600
       3   469.0000     1.4000
       4   469.0000     1.4000
       5   469.0000     1.4000
       6   385.0000     1.4600
       7   469.0000     1.4000
       8   469.0000     1.4000
       9   469.0000     1.4000
      10   469.0000     1.4000
      11   469.0000     1.4000
      12   469.0000     1.4000
      13   469.0000     1.4000
      14   469.0000     1.4000
      15   469.0000     1.4000
      16   469.0000     1.4000
      17   469.0000     1.4000
      18   317.0000     1.5100
      19   268.0000     1.5290
      20   367.0000     1.3320
      21   367.0000     1.3320
      22   367.0000     1.3320
      23   317.0000     1.5100
      24   469.0000     1.4000
      25   469.0000     1.4000
      26   469.0000     1.4000
      27   469.0000     1.4000
      28   469.0000     1.4000
      29   367.0000     1.0800
      30   367.0000     1.0800
      31   367.0000     1.0800
      32   340.0000     1.0900
      33   367.0000     1.0800
      34   367.0000     1.0800
      35   367.0000     1.0800
      36   367.0000     1.0800
      37   367.0000     1.0800
      38   367.0000     1.0800
      39   367.0000     1.0800
      40   367.0000     1.0800
      41   367.0000     1.0800
      42   367.0000     1.0800
      43   367.0000     1.0800
      44   367.0000     1.0800
      45   367.0000     1.0800
      46   367.0000     1.0800
      47   367.0000     1.0800
      48   469.0000     1.4000
      49   469.0000     1.4000
      50   469.0000     1.4000
      51   469.0000     1.4000

Angle Coeffs

       1     63.000    120.000
       2     63.000    120.000
       3     63.000    120.000
       4     63.000    120.000
       5     63.000    120.000
       6     63.000    120.000
       7     63.000    120.000
       8     63.000    120.000
       9     63.000    120.000
      10     63.000    120.000
      11     63.000    120.000
      12     63.000    120.000
      13     63.000    120.000
      14     63.000    120.000
      15     63.000    120.000
      16     63.000    120.000
      17     70.000    120.000
      18     63.000    114.000
      19     50.000    109.500
      20     50.000    109.500
      21     50.000    109.500
      22     40.000    109.500
      23     70.000    120.000
      24     63.000    120.000
      25     63.000    120.000
      26     63.000    120.000
      27     70.000    120.000
      28     35.000    120.000
      29     35.000    120.000
      30     35.000    120.000
      31     35.000    109.500
      32     35.000    120.000
      33     35.000    120.000
      34     35.000    120.000
      35     35.000    120.000
      36     35.000    120.000
      37     35.000    120.000
      38     35.000    120.000
      39     35.000    120.000
      40     35.000    120.000
      41     35.000    120.000
      42     35.000    120.000
      43     35.000    120.000
      44     35.000    120.000
      45     35.000    120.000
      46     35.000    120.000
      47     63.000    120.000
      48     63.000    120.000
      49     35.000    120.000
      50     35.000    120.000
      51     63.000    120.000
      52     63.000    120.000
      53     35.000    120.000
      54     35.000    120.000
      55     35.000    120.000
      56     35.000    120.000
      57     63.000    120.000
      58     35.000    120.000
      59     63.000    120.000
      60     35.000    120.000
      61     35.000    120.000
      62     70.000    120.000
      63     63.000    120.000
      64     35.000    120.000
      65     63.000    114.000
      66     37.500    110.700
      67     77.000    109.100
      68     77.000    109.100
      69     77.000    109.100
      70     35.000    109.500
      71     63.000    120.000
      72     35.000    120.000
      73     35.000    120.000
      74     35.000    120.000
      75     63.000    120.000
      76     35.000    120.000
      77     35.000    120.000
      78     35.000    120.000
      79     35.000    120.000
      80     35.000    120.000
      81     63.000    120.000
      82     63.000    120.000
      83     63.000    120.000
      84     63.000    120.000

Dihedral Coeffs

       1      0.000      1.650      0.000     -0.050
       2      0.000      7.250      0.000      0.000
       3      0.000      7.250      0.000      0.000
       4      0.000      7.250      0.000      0.000
       5      0.000      1.650      0.000     -0.050
       6      0.000      7.250      0.000      0.000
       7      0.000      7.250      0.000      0.000
       8      0.000      7.250      0.000      0.000
       9      0.000      7.250      0.000      0.000
      10      0.000      7.250      0.000      0.000
      11      0.000      7.250      0.000      0.000
      12      0.000      1.650      0.000     -0.050
      13      0.000      7.250      0.000      0.000
      14      0.000      7.250      0.000      0.000
      15      0.000      7.250      0.000      0.000
      16      0.000      7.250      0.000      0.000
      17     -0.250      0.000      0.000      0.000
      18      0.000      0.000      0.000      0.000
      19      0.000      0.000      0.000      0.000
      20      0.000      0.000      0.000      0.000
      21     -0.250      0.000      0.000      0.000
      22     -0.250      0.000      0.000      0.000
      23      0.000      7.250      0.000      0.000
      24      0.000      7.250      0.000      0.000
      25      0.000      7.250      0.000      0.000
      26     -0.250      0.000      0.000      0.000
      27      0.000      7.250      0.000      0.000
      28      0.000      7.250      0.000      0.000
      29      0.000      7.250      0.000      0.000
      30      0.000      0.000      0.000      0.000
      31      0.000      7.250      0.000      0.000
      32      0.000      7.250      0.000      0.000
      33      0.000      7.250      0.000      0.000
      34      0.000      7.250      0.000      0.000
      35      0.000      7.250      0.000      0.000
      36      0.000      7.250      0.000      0.000
      37      0.000      7.250      0.000      0.000
      38      0.000      7.250      0.000      0.000
      39      0.000      7.250      0.000      0.000
      40      0.000      7.250      0.000      0.000
      41      0.000      7.250      0.000      0.000
      42      0.000      7.250      0.000      0.000
      43      0.000      7.250      0.000      0.000
      44      0.000      7.250      0.000      0.000
      45      0.000      7.250      0.000      0.000
      46      0.000      1.650      0.000     -0.050
      47      0.000      7.250      0.000      0.000
      48      0.000      7.250      0.000      0.000
      49      0.000      7.250      0.000      0.000
      50      0.000      7.250      0.000      0.000
      51      0.000      7.250      0.000      0.000
      52      0.000      7.250      0.000      0.000
      53      0.000      7.250      0.000      0.000
      54      0.000      7.250      0.000      0.000
      55      0.000      7.250      0.000      0.000
      56      0.000      7.250      0.000      0.000
      57      0.000      1.650      0.000     -0.050
      58      0.000      7.250      0.000      0.000
      59      0.000      7.250      0.000      0.000
      60      0.000      7.250      0.000      0.000
      61      0.000      7.250      0.000      0.000
      62      0.000      7.250      0.000      0.000
      63      0.000      7.250      0.000      0.000
      64      0.000      1.650      0.000     -0.050
      65      0.000      1.650      0.000     -0.050
      66      0.000      7.250      0.000      0.000
      67      0.000      7.250      0.000      0.000
      68      0.000      1.650      0.000     -0.050
      69      0.000      7.250      0.000      0.000
      70      0.000      7.250      0.000      0.000
      71      0.000      7.250      0.000      0.000
      72      0.000      7.250      0.000      0.000
      73      0.000      7.250      0.000      0.000
      74     -0.250      0.000      0.000      0.000
      75     -0.250      0.000      0.000      0.000
      76      0.000      0.000      0.000      0.000
      77      0.000      7.250      0.000      0.000
      78      0.000      7.250      0.000      0.000
      79      0.000      7.250      0.000      0.000
      80     -0.250      0.000      0.000      0.000
      81     -0.250      0.000      0.000      0.000
      82      0.000      0.000      0.000      0.000
      83      0.000      0.000      0.360      0.000
      84      0.000      0.000      0.000      0.000
      85      0.000      0.000      0.360      0.000
      86      0.000      0.000      0.000      0.000
      87      0.000      0.000      0.360      0.000
      88      0.000      0.000      0.000      0.000
      89      0.000      7.250      0.000      0.000
      90      0.000      7.250      0.000      0.000
      91      0.000      7.250      0.000      0.000
      92      0.000      7.250      0.000      0.000
      93      0.000      7.250      0.000      0.000
      94      0.000      0.000      0.000      0.000
      95      0.000      7.250      0.000      0.000
      96      0.000      7.250      0.000      0.000
      97      0.000      7.250      0.000      0.000
      98      0.000      7.250      0.000      0.000
      99      0.000      7.250      0.000      0.000
     100      0.000      7.250      0.000      0.000
     101      0.000      7.250      0.000      0.000
     102      0.000      7.250      0.000      0.000
     103      0.000      7.250      0.000      0.000
     104      0.000      7.250      0.000      0.000
     105      0.000      7.250      0.000      0.000
     106      0.000      7.250      0.000      0.000
     107      0.000      7.250      0.000      0.000
     108      0.000      7.250      0.000      0.000
     109      0.000      7.250      0.000      0.000
     110      0.000      7.250      0.000      0.000
     111      0.000      7.250      0.000      0.000
     112      0.000      7.250      0.000      0.000
     113      0.000      7.250      0.000      0.000
     114      0.000      7.250      0.000      0.000
     115      0.000      7.250      0.000      0.000
     116      0.000      7.250      0.000      0.000
     117      0.000      7.250      0.000      0.000
     118      0.000      7.250      0.000      0.000
     119      0.000      7.250      0.000      0.000
     120      0.000      7.250      0.000      0.000
     121      0.000      7.250      0.000      0.000
     122      0.000      7.250      0.000      0.000
     123      0.000      7.250      0.000      0.000
     124      0.000      7.250      0.000      0.000
     125      0.000      7.250      0.000      0.000

Improper Coeffs

       1      2.500      -1       2
       2      2.500      -1       2
       3      2.500      -1       2
       4      2.500      -1       2
       5      2.500      -1       2
       6      2.500      -1       2
       7      2.500      -1       2
       8      2.500      -1       2
       9      2.500      -1       2
      10      2.500      -1       2
      11      2.500      -1       2
      12      2.500      -1       2
      13      2.500      -1       2
      14      2.500      -1       2
      15      2.500      -1       2
      16      2.500      -1       2
      17      2.500      -1       2
      18      2.500      -1       2
      19      2.500      -1       2
      20      2.500      -1       2
      21      2.500      -1       2
      22      2.500      -1       2
      23      2.500      -1       2
      24      2.500      -1       2

Atoms

     1      1      1  -0.124833  5.43900 -2.64600 -3.10900
     2      1      2  -0.132989  5.77500 -1.31900 -3.44000
     3      1      3  -0.119171  5.29300 -0.25200 -2.65700
     4      1      4  -0.098825  4.47000 -0.50400 -1.53700
     5      1      5  -0.081992  3.95000  0.65700 -0.69000
     6      1      6  -0.098533  2.43000  0.53200 -0.53100
     7      1      7  -0.118609  1.60500  0.73400 -1.65800
     8      1      8  -0.121699  0.20500  0.61800 -1.55500
     9      1      9  -0.031478 -0.39600  0.29300 -0.32100
    10      1     10  -0.048003 -1.85900  0.17000 -0.21200
    11      1     11  -0.120993 -2.43500 -0.87300  0.54400
    12      1     12  -0.123397 -3.83500 -0.99200  0.64600
    13      1     13  -0.038801 -4.68200 -0.06800 -0.00400
    14      1     14  -0.046332 -6.14500 -0.19100  0.10400
    15      1     15  -0.122200 -6.94800  0.95700  0.28200
    16      1     16  -0.135502 -8.34800  0.83900  0.38600
    17      1     17  -0.133462 -8.95700 -0.42800  0.31200
    18      1     18  -0.135779 -8.16300 -1.57800  0.13400
    19      1     19  -0.122231 -6.76300 -1.45900  0.03100
    20      1     20  -0.123560 -4.10500  0.97600 -0.75900
    21      1     21  -0.120712 -2.70500  1.09300 -0.86300
    22      1     22  -0.121699  0.42600  0.08400  0.80600
    23      1     23  -0.118609  1.82600  0.20000  0.70400
    24      1     24   0.409132  4.78400  0.91500  0.58700
    25      1     25  -0.154215  6.03200  1.23500  0.24300
    26      1     26  -0.154215  4.26900  1.93100  1.27900
    27      1     27  -0.154215  4.82300 -0.16600  1.36800
    28      1     28  -0.119171  4.14100 -1.83800 -1.20900
    29      1     29  -0.132989  4.62200 -2.90400 -1.99300
    30      1     30   0.139407  5.81000 -3.46400 -3.71000
    31      1     31   0.141354  6.40600 -1.11900 -4.29400
    32      1     32   0.149458  5.56600  0.76000 -2.92000
    33      1     33   0.150687  4.08100  1.56400 -1.28100
    34      1     34   0.151283  2.04700  0.96700 -2.61700
    35      1     35   0.147021 -0.40400  0.76300 -2.43500
    36      1     36   0.144151 -1.80600 -1.59500  1.04200
    37      1     37   0.144790 -4.25700 -1.79200  1.23700
    38      1     38   0.142480 -6.49200  1.93300  0.35300
    39      1     39   0.138593 -8.95400  1.72200  0.52600
    40      1     40   0.137113 -10.03100 -0.51900  0.39100
    41      1     41   0.138426 -8.62800 -2.55100  0.07400
    42      1     42   0.142187 -6.16600 -2.34700 -0.11700
    43      1     43   0.144883 -4.73600  1.68700 -1.27100
    44      1     44   0.144132 -2.28400  1.90400 -1.43900
    45      1     45   0.147021 -0.01500 -0.15600  1.76300
    46      1     46   0.151283  2.42200  0.03200  1.58900
    47      1     47   0.149458  3.51400 -2.04500 -0.35300
    48      1     48   0.141355  4.36300 -3.92100 -1.73500

Bonds

     1      1      8      9
     2      2     10      9
     3      3     11     10
     4      4     12     11
     5      5     13     12
     6      6     14     13
     7      7     15     14
     8      8     16     15
     9      9     17     16
    10     10     18     17
    11     11     19     18
    12     12     20     13
    13     13     21     20
    14     14     22      9
    15     15     23     22
    16     16      6     23
    17     17      7      6
    18     18      5      6
    19     19     24      5
    20     20     25     24
    21     21     26     24
    22     22     27     24
    23     23      4      5
    24     24     28      4
    25     25     29     28
    26     26      1     29
    27     27      2      1
    28     28      3      4
    29     29     30      1
    30     30     31      2
    31     31     32      3
    32     32     33      5
    33     33     34      7
    34     34     35      8
    35     35     36     11
    36     36     37     12
    37     37     38     15
    38     38     39     16
    39     39     40     17
    40     40     41     18
    41     41     42     19
    42     42     43     20
    43     43     44     21
    44     44     45     22
    45     45     46     23
    46     46     47     28
    47     47     48     29
    48     48     19     14
    49     49     21     10
    50     50      7      8
    51     51      3      2

Angles

     1      1     10      9      8
     2      2     11     10      9
     3      3     12     11     10
     4      4     13     12     11
     5      5     14     13     12
     6      6     15     14     13
     7      7     16     15     14
     8      8     17     16     15
     9      9     18     17     16
    10     10     19     18     17
    11     11     20     13     12
    12     12     21     20     13
    13     13     22      9     10
    14     14     23     22      9
    15     15      6     23     22
    16     16      7      6     23
    17     17      5      6     23
    18     18     24      5      6
    19     19     25     24      5
    20     20     26     24      5
    21     21     27     24      5
    22     22      4      5      6
    23     23     28      4      5
    24     24     29     28      4
    25     25      1     29     28
    26     26      2      1     29
    27     27      3      4      5
    28     28     30      1     29
    29     29     31      2      1
    30     30     32      3      4
    31     31     33      5      6
    32     32     34      7      6
    33     33     35      8      9
    34     34     36     11     10
    35     35     37     12     11
    36     36     38     15     14
    37     37     39     16     15
    38     38     40     17     16
    39     39     41     18     17
    40     40     42     19     18
    41     41     43     20     13
    42     42     44     21     20
    43     43     45     22      9
    44     44     46     23     22
    45     45     47     28      4
    46     46     48     29     28
    47     47     22      9      8
    48     48     21     10     11
    49     49     36     11     12
    50     50     37     12     13
    51     51     20     13     14
    52     52     19     14     15
    53     53     38     15     16
    54     54     39     16     17
    55     55     40     17     18
    56     56     41     18     19
    57     57     13     14     19
    58     58     43     20     21
    59     59      9     10     21
    60     60     45     22     23
    61     61     46     23      6
    62     62      5      6      7
    63     63      9      8      7
    64     64     35      8      7
    65     65      4      5     24
    66     66     33      5     24
    67     67     26     24     25
    68     68     27     24     25
    69     69     27     24     26
    70     70     33      5      4
    71     71      3      4     28
    72     72     47     28     29
    73     73     48     29      1
    74     74     30      1      2
    75     75      1      2      3
    76     76     31      2      3
    77     77      2      3     32
    78     78      8      7     34
    79     79     14     19     42
    80     80     10     21     44
    81     81     18     19     14
    82     82     20     21     10
    83     83      6      7      8
    84     84      4      3      2

Dihedrals

     1      1     11     10      9      8
     2      2     12     11     10      9
     3      3     13     12     11     10
     4      4     14     13     12     11
     5      5     15     14     13     12
     6      6     16     15     14     13
     7      7     17     16     15     14
     8      8     18     17     16     15
     9      9     19     18     17     16
    10     10     20     13     12     11
    11     11     21     20     13     12
    12     12     22      9     10     11
    13     13     23     22      9      8
    14     14      6     23     22      9
    15     15      7      6     23     22
    16     16      5      6     23     22
    17     17     24      5      6     23
    18     18     25     24      5      6
    19     19     26     24      5      6
    20     20     27     24      5      6
    21     21      4      5      6     23
    22     22     28      4      5      6
    23     23     29     28      4      5
    24     24      1     29     28      4
    25     25      2      1     29     28
    26     26      3      4      5      6
    27     27     30      1     29     28
    28     28     31      2      1     29
    29     29     32      3      4      5
    30     30     33      5      6     23
    31     31     34      7      6     23
    32     32     35      8      9     10
    33     33     36     11     10      9
    34     34     37     12     11     10
    35     35     38     15     14     13
    36     36     39     16     15     14
    37     37     40     17     16     15
    38     38     41     18     17     16
    39     39     42     19     18     17
    40     40     43     20     13     12
    41     41     44     21     20     13
    42     42     45     22      9      8
    43     43     46     23     22      9
    44     44     47     28      4      5
    45     45     48     29     28      4
    46     46     21     10      9      8
    47     47      7      8      9     10
    48     48     23     22      9     10
    49     49     45     22      9     10
    50     50     20     21     10     11
    51     51     44     21     10     11
    52     52     21     10     11     12
    53     53     36     11     12     13
    54     54     37     12     13     14
    55     55     21     20     13     14
    56     56     43     20     13     14
    57     57     20     13     14     15
    58     58     18     19     14     15
    59     59     42     19     14     15
    60     60     19     14     15     16
    61     61     38     15     16     17
    62     62     39     16     17     18
    63     63     40     17     18     19
    64     64     12     13     14     19
    65     65     20     13     14     19
    66     66     38     15     14     19
    67     67     37     12     13     20
    68     68     22      9     10     21
    69     69     36     11     10     21
    70     70      7      8      9     22
    71     71     35      8      9     22
    72     72     45     22     23      6
    73     73     46     23      6      7
    74     74     24      5      6      7
    75     75      4      5      6      7
    76     76     33      5      6      7
    77     77     46     23      6      5
    78     78      8      7      6      5
    79     79     34      7      6      5
    80     80     28      4      5     24
    81     81      3      4      5     24
    82     82      4      5     24     25
    83     83     33      5     24     25
    84     84      4      5     24     26
    85     85     33      5     24     26
    86     86      4      5     24     27
    87     87     33      5     24     27
    88     88     33      5      4     28
    89     89      2      3      4     28
    90     90     32      3      4     28
    91     91      3      4     28     29
    92     92     47     28     29      1
    93     93     48     29      1      2
    94     94     33      5      4      3
    95     95     47     28      4      3
    96     96     29      1      2      3
    97     97     30      1      2      3
    98     98     48     29      1     30
    99     99     31      2      1     30
   100    100      4      3      2     31
   101    101     32      3      2     31
   102    102      1      2      3     32
   103    103      9      8      7     34
   104    104     35      8      7     34
   105    105      6      7      8     35
   106    106     37     12     11     36
   107    107     39     16     15     38
   108    108     40     17     16     39
   109    109     41     18     17     40
   110    110     14     19     18     41
   111    111     42     19     18     41
   112    112     13     14     19     42
   113    113     10     21     20     43
   114    114     44     21     20     43
   115    115      9     10     21     44
   116    116     46     23     22     45
   117    117     48     29     28     47
   118    118     17     18     19     14
   119    119     13     14     19     18
   120    120     13     20     21     10
   121    121      9     10     21     20
   122    122     23      6      7      8
   123    123      9      8      7      6
   124    124      5      4      3      2
   125    125      1      2      3      4

Impropers

     1      1      8      9     10     22
     2      2      9      8      7     35
     3      3      9     10     11     21
     4      4     10     11     12     36
     5      5     11     12     13     37
     6      6     12     13     14     20
     7      7     13     14     15     19
     8      8     14     15     16     38
     9      9     15     16     17     39
    10     10     16     17     18     40
    11     11     17     18     19     41
    12     12     18     19     14     42
    13     13     13     20     21     43
    14     14     20     21     10     44
    15     15      9     22     23     45
    16     16     22     23      6     46
    17     17     23      6      7      5
    18     18      6      7      8     34
    19     19      5      4     28      3
    20     20      4     28     29     47
    21     21     28     29      1     48
    22     22     29      1      2     30
    23     23      1      2      3     31
    24     24      4      3      2     32


