LAMMPS data file via MDAnalysis

        4164  atoms
        4152  bonds
        8100  angles
       11592  dihedrals
           0  impropers

           7  atom types
           8  bond types
          14  angle types
          18  dihedral types
           0  improper types

0.000000 100.000000 xlo xhi
0.000000 100.000000 ylo yhi
0.000000 100.000000 zlo zhi

Masses

1   12.011   # C_000_NAFI
2   18.998   # F_021_NAFI
3    1.008   # H_064_NAFI
4   15.999   # O_065_NAFI
5   15.999   # O_067_NAFI
6   15.999   # O_068_NAFI
7   32.067   # S_070_NAFI

Pair Coeffs

    1      0.06600000      3.50000000  # C_000_NAFI
    2      0.06000000      2.90000000  # F_021_NAFI
    3      0.00000000      0.00000000  # H_064_NAFI
    4      0.14000000      2.90000000  # O_065_NAFI
    5      0.17000000      2.96000000  # O_067_NAFI
    6      0.17000000      3.12000000  # O_068_NAFI
    7      0.25000000      3.55000000  # S_070_NAFI

Bond Coeffs

    1    367.000000      1.332000  #  C_009-F_041 | NAFI
    2    268.000000      1.529000  #  C_010-C_009 | NAFI
    3    320.000000      1.410000  #  O_065-C_020 | NAFI
    4    367.000000      1.360000  #  F_056-C_016 | NAFI
    5    340.000000      1.770000  #  S_070-C_019 | NAFI
    6    700.000000      1.440000  #  O_067-S_070 | NAFI
    7    450.000000      1.670000  #  O_068-S_070 | NAFI
    8    553.000000      0.945000  #  H_064-O_068 | NAFI

Angle Coeffs

    1     50.000000    109.500000  #  C_010-C_009-F_041 | NAFI
    2     58.350000    112.700000  #  C_011-C_010-C_009 | NAFI
    3     50.000000    109.500000  #  O_065-C_020-C_014 | NAFI
    4     60.000000    109.500000  #  C_015-O_065-C_020 | NAFI
    5     59.700000    110.180000  #  F_054-C_015-O_065 | NAFI
    6     50.000000    114.700000  #  S_070-C_019-C_018 | NAFI
    7     74.000000    108.900000  #  O_067-S_070-C_019 | NAFI
    8     75.000000     96.400000  #  O_068-S_070-C_019 | NAFI
    9     74.000000    110.000000  #  H_064-O_068-S_070 | NAFI
   10     77.000000    109.100000  #  F_041-C_009-F_040 | NAFI
   11     51.140000    110.240000  #  O_066-C_016-F_056 | NAFI
   12     50.000000    109.500000  #  S_070-C_019-F_062 | NAFI
   13     74.000000    108.700000  #  O_068-S_070-O_067 | NAFI
   14    104.000000    123.000000  #  O_069-S_070-O_067 | NAFI

Dihedral Coeffs

    1     0.3000   0.0000   0.4000   0.0000  #  C_011-C_010-C_009-F_041 | NAFI
    2     6.6220   0.9480  -1.3880  -2.1180  #  C_012-C_011-C_010-C_009 | NAFI
    3    -2.5000   0.0000   0.2500   0.0000  #  F_042-C_010-C_009-F_041 | NAFI
    4     6.6220   0.9480  -1.3880  -2.1180  #  O_065-C_020-C_014-C_013 | NAFI
    5     0.2500  -0.2500   0.5000   0.0000  #  C_015-O_065-C_020-C_014 | NAFI
    6     1.3000  -0.5000   0.0000   0.0000  #  C_017-C_016-C_015-O_065 | NAFI
    7     0.3000   0.0000   0.4000   0.0000  #  F_054-C_015-O_065-C_020 | NAFI
    8     0.0000   0.0000   0.5400   0.0000  #  F_056-C_016-C_015-O_065 | NAFI
    9    -0.5500   0.0000   0.0000   0.0000  #  O_066-C_016-C_015-O_065 | NAFI
   10     0.0000   5.1240   0.0000   0.0000  #  F_060-C_018-O_066-C_016 | NAFI
   11    -2.5000   0.0000   0.2500   0.0000  #  F_062-C_019-C_018-O_066 | NAFI
   12    -2.5000   0.0000   0.2500   0.0000  #  S_070-C_019-C_018-O_066 | NAFI
   13     0.0000   0.0000   0.0000   0.0000  #  O_067-S_070-C_019-C_018 | NAFI
   14    -0.7500   0.0000   0.0000   0.0000  #  H_064-O_068-S_070-C_019 | NAFI
   15     0.0000   0.0000   0.7600   0.0000  #  C_018-O_066-C_016-F_056 | NAFI
   16    -2.5000   0.0000   0.2500   0.0000  #  S_070-C_019-C_018-F_060 | NAFI
   17     0.0000   0.0000   0.0000   0.0000  #  O_067-S_070-C_019-F_062 | NAFI
   18     0.7500   0.0000   0.0000   0.0000  #  H_064-O_068-S_070-O_067 | NAFI

Atoms

   1   0  1   0.0905900   93.36700  64.54200  40.31100
   2   0  1   0.1952130   92.19200  63.67100  39.72600
   3   0  1   0.1918010   91.26700  63.00400  40.81700
   4   0  1   0.1935420   90.08500  62.12900  40.24000
   5   0  1   0.1937750   89.15800  61.46300  41.33200
   6   0  1   0.1943790   87.98300  60.57400  40.75800
   7   0  1   0.5607130   94.28900  65.20600  39.24800
   8   0  1   0.1934500   87.05100  59.91700  41.85300
   9   0  1   0.1945970   85.89600  58.99900  41.28400
  10   0  1   0.1941310   84.96700  58.34400  42.38200
  11   0  1   0.1941930   83.82000  57.41400  41.81900
  12   0  1   0.1928750   82.96100  56.68100  42.92200
  13   0  1   0.1928080   81.74400  55.84100  42.36700
  14   0  1   0.1924970   81.05200  54.91200  43.43700
  15   0  1   0.1272260   79.73400  54.20900  42.94200
  16   0  1   0.4451810   79.24200  53.21400  46.42400
  17   0  1   0.2107670   78.50500  53.95400  47.59000
  18   0  1   0.4035830   77.03000  53.43200  47.75400
  19   0  1   0.3962620   78.98000  54.33200  50.07900
  20   0  1  -0.1928390   80.28300  54.37100  50.93900
  21   0  1   0.5500100   79.17000  53.10200  43.88400
  22   0  2  -0.1029950   94.16200  63.80600  41.11300
  23   0  2  -0.1029950   92.89100  65.53400  41.09100
  24   0  2  -0.0976900   92.71800  62.71300  38.93400
  25   0  2  -0.0976900   91.44300  64.44600  38.91500
  26   0  2  -0.0987560   90.75700  63.97000  41.60700
  27   0  2  -0.0987560   92.03200  62.23900  41.62400
  28   0  2  -0.0977880   90.60000  61.16200  39.45100
  29   0  2  -0.0977880   89.32700  62.89400  39.42900
  30   0  2  -0.0976290   88.63400  62.43000  42.11300
  31   0  2  -0.0976290   89.92000  60.70800  42.15000
  32   0  2  -0.0974600   88.51000  59.60100  39.98600
  33   0  2  -0.0974600   87.22400  61.32300  39.93200
  34   0  2  -0.1447190   94.90900  64.30400  38.46400
  35   0  2  -0.1447190   95.07300  65.79000  39.75000
  36   0  2  -0.1447190   93.62300  66.05200  38.43900
  37   0  2  -0.0974120   86.50400  60.89400  42.60600
  38   0  2  -0.0974120   87.81200  59.19000  42.69800
  39   0  2  -0.0974810   86.44800  58.02400  40.53300
  40   0  2  -0.0974810   85.13100  59.72000  40.43900
  41   0  2  -0.0970610   84.40800  59.32300  43.12400
  42   0  2  -0.0970610   85.73100  57.63200  43.23700
  43   0  2  -0.0977590   84.36400  56.48500  41.00700
  44   0  2  -0.0977590   83.00000  58.14700  41.03600
  45   0  2  -0.0970830   82.48800  57.59000  43.80100
  46   0  2  -0.0970830   83.77200  55.87500  43.64000
  47   0  2  -0.0985820   82.15000  55.07500  41.33400
  48   0  2  -0.0985820   80.82700  56.68600  41.85100
  49   0  2  -0.0972730   80.75900  55.62900  44.54200
  50   0  2  -0.0972730   81.93100  53.96800  43.83200
  51   0  2  -0.0980280   79.90900  53.63800  41.73300
  52   0  2  -0.0980280   78.75300  55.11900  42.76600
  53   0  2  -0.0851230   80.02300  52.06600  44.01100
  54   0  2  -0.1081060   80.56200  53.48100  46.48700
  55   0  2  -0.1081060   79.12500  51.88000  46.57400
  56   0  2  -0.0662750   78.47500  55.26900  47.27600
  57   0  2  -0.1299440   76.07300  54.11600  47.10000
  58   0  2  -0.1299440   76.77900  53.56300  49.07100
  59   0  2  -0.1299440   76.82800  52.13800  47.44300
  60   0  2  -0.1045930   78.04400  53.58800  50.69900
  61   0  2  -0.1045930   78.47900  55.57600  49.95400
  62   0  2  -0.0915470   81.18600  55.16600  50.33100
  63   0  2  -0.0915470   80.83900  53.14100  50.97800
  64   0  3   0.5507020   79.77300  52.86900  52.94000
  65   0  4  -0.5171240   78.70200  53.66800  45.14600
  66   0  4  -0.4024650   79.32100  53.74200  48.78900
  67   0  5  -0.4516410   81.35300  55.05700  53.17800
  68   0  6  -0.6548290   79.36200  53.67500  53.30600
  69   0  5  -0.4516410   79.11600  56.05600  52.67300
  70   0  7   1.4272400   80.03000  54.94800  52.62700
  71   0  1   0.0905900   76.94400  51.82300  44.25300
  72   0  1   0.1952130   75.76900  50.95200  43.66800
  73   0  1   0.1918010   74.84500  50.28500  44.75800
  74   0  1   0.1935420   73.66200  49.40900  44.18100
  75   0  1   0.1937750   72.73500  48.74300  45.27400
  76   0  1   0.1943790   71.56000  47.85400  44.70000
  77   0  1   0.5607130   77.86600  52.48700  43.19000
  78   0  1   0.1934500   70.62800  47.19800  45.79500
  79   0  1   0.1945970   69.47300  46.28000  45.22600
  80   0  1   0.1941310   68.54400  45.62500  46.32400
  81   0  1   0.1941930   67.39700  44.69500  45.76000
  82   0  1   0.1928750   66.53900  43.96200  46.86400
  83   0  1   0.1928080   65.32100  43.12200  46.30900
  84   0  1   0.1924970   64.62900  42.19300  47.37800
  85   0  1   0.1272260   63.31100  41.48900  46.88300
  86   0  1   0.4451810   62.81900  40.49500  50.36500
  87   0  1   0.2107670   62.08200  41.23500  51.53100
  88   0  1   0.4035830   60.60700  40.71300  51.69600
  89   0  1   0.3962620   62.55700  41.61300  54.02100
  90   0  1  -0.1928390   63.86000  41.65200  54.88000
  91   0  1   0.5500100   62.74700  40.38300  47.82600
  92   0  2  -0.1029950   77.73900  51.08700  45.05500
  93   0  2  -0.1029950   76.46800  52.81500  45.03300
  94   0  2  -0.0976900   76.29500  49.99400  42.87500
  95   0  2  -0.0976900   75.02000  51.72700  42.85600
  96   0  2  -0.0987560   74.33500  51.25100  45.54900
  97   0  2  -0.0987560   75.60900  49.52000  45.56600
  98   0  2  -0.0977880   74.17700  48.44300  43.39200
  99   0  2  -0.0977880   72.90400  50.17500  43.37000
 100   0  2  -0.0976290   72.21200  49.71000  46.05500
 101   0  2  -0.0976290   73.49700  47.98800  46.09200
 102   0  2  -0.0974600   72.08700  46.88200  43.92700
 103   0  2  -0.0974600   70.80200  48.60300  43.87300
 104   0  2  -0.1447190   78.48700  51.58500  42.40500
 105   0  2  -0.1447190   77.20000  53.33300  42.38100
 106   0  2  -0.0974120   70.08100  48.17500  46.54800
 107   0  2  -0.0974120   71.38900  46.47100  46.64000
 108   0  2  -0.0974810   70.02500  45.30400  44.47400
 109   0  2  -0.0974810   68.70800  47.00100  44.38100
 110   0  2  -0.0970610   67.98600  46.60400  47.06600
 111   0  2  -0.0970610   69.30800  44.91300  47.17900
 112   0  2  -0.0977590   67.94100  43.76500  44.94900
 113   0  2  -0.0977590   66.57700  45.42800  44.97700
 114   0  2  -0.0970830   66.06500  44.87100  47.74200
 115   0  2  -0.0970830   67.34900  43.15600  47.58100
 116   0  2  -0.0985820   65.72700  42.35600  45.27600
 117   0  2  -0.0985820   64.40400  43.96700  45.79200
 118   0  2  -0.0972730   64.33600  42.91000  48.48400
 119   0  2  -0.0972730   65.50800  41.24900  47.77400
 120   0  2  -0.0980280   63.48600  40.91800  45.67400
 121   0  2  -0.0980280   62.33000  42.39900  46.70700
 122   0  2  -0.0851230   63.60000  39.34700  47.95200
 123   0  2  -0.1081060   64.14000  40.76200  50.42800
 124   0  2  -0.1081060   62.70200  39.16100  50.51500
 125   0  2  -0.0662750   62.05200  42.54900  51.21700
 126   0  2  -0.1299440   59.65000  41.39700  51.04100
 127   0  2  -0.1299440   60.35600  40.84400  53.01200
 128   0  2  -0.1299440   60.40500  39.41900  51.38500
 129   0  2  -0.1045930   61.62100  40.86900  54.64100
 130   0  2  -0.1045930   62.05600  42.85700  53.89600
 131   0  2  -0.0915470   64.76300  42.44700  54.27200
 132   0  2  -0.0915470   64.41600  40.42200  54.91900
 133   0  3   0.5507020   63.35000  40.15000  56.88200
 134   0  4  -0.5171240   62.27900  40.94800  49.08800
 135   0  4  -0.4024650   62.89800  41.02300  52.73100
 136   0  5  -0.4516410   64.93000  42.33800  57.11900
 137   0  6  -0.6548290   62.93900  40.95600  57.24700
 138   0  5  -0.4516410   62.69300  43.33700  56.61500
 139   0  7   1.4272400   63.60700  42.22900  56.56800
 140   0  1   0.0905900   60.52100  39.10400  48.19500
 141   0  1   0.1952130   59.34600  38.23300  47.61000
 142   0  1   0.1918010   58.42200  37.56500  48.70100
 143   0  1   0.1935420   57.23900  36.69000  48.12400
 144   0  1   0.1937750   56.31200  36.02400  49.21600
 145   0  1   0.1943790   55.13800  35.13500  48.64200
 146   0  1   0.5607130   61.44400  39.76800  47.13200
 147   0  1   0.1934500   54.20500  34.47900  49.73700
 148   0  1   0.1945970   53.05100  33.56000  49.16800
 149   0  1   0.1941310   52.12200  32.90500  50.26700
 150   0  1   0.1941930   50.97400  31.97600  49.70300
 151   0  1   0.1928750   50.11600  31.24200  50.80600
 152   0  1   0.1928080   48.89800  30.40200  50.25100
 153   0  1   0.1924970   48.20600  29.47400  51.32100
 154   0  1   0.1272260   46.88800  28.77000  50.82600
 155   0  1   0.4451810   46.39700  27.77600  54.30800
 156   0  1   0.2107670   45.65900  28.51500  55.47400
 157   0  1   0.4035830   44.18400  27.99300  55.63800
 158   0  1   0.3962620   46.13400  28.89400  57.96300
 159   0  1  -0.1928390   47.43700  28.93200  58.82300
 160   0  1   0.5500100   46.32400  27.66400  51.76800
 161   0  2  -0.1029950   61.31700  38.36700  48.99700
 162   0  2  -0.1029950   60.04600  40.09600  48.97500
 163   0  2  -0.0976900   59.87200  37.27500  46.81800
 164   0  2  -0.0976900   58.59700  39.00800  46.79900
 165   0  2  -0.0987560   57.91200  38.53200  49.49100
 166   0  2  -0.0987560   59.18600  36.80100  49.50800
 167   0  2  -0.0977880   57.75400  35.72400  47.33500
 168   0  2  -0.0977880   56.48100  37.45500  47.31300
 169   0  2  -0.0976290   55.78900  36.99100  49.99700
 170   0  2  -0.0976290   57.07400  35.26900  50.03500
 171   0  2  -0.0974600   55.66400  34.16300  47.87000
 172   0  2  -0.0974600   54.37900  35.88400  47.81600
 173   0  2  -0.1447190   62.06400  38.86500  46.34800
 174   0  2  -0.1447190   60.77700  40.61400  46.32300
 175   0  2  -0.0974120   53.65900  35.45500  50.49000
 176   0  2  -0.0974120   54.96600  33.75200  50.58200
 177   0  2  -0.0974810   53.60300  32.58500  48.41700
 178   0  2  -0.0974810   52.28500  34.28100  48.32400
 179   0  2  -0.0970610   51.56300  33.88400  51.00900
 180   0  2  -0.0970610   52.88500  32.19400  51.12100
 181   0  2  -0.0977590   51.51900  31.04600  48.89100
 182   0  2  -0.0977590   50.15500  32.70800  48.92000
 183   0  2  -0.0970830   49.64200  32.15200  51.68500
 184   0  2  -0.0970830   50.92600  30.43700  51.52400
 185   0  2  -0.0985820   49.30500  29.63700  49.21800
 186   0  2  -0.0985820   47.98100  31.24800  49.73500
 187   0  2  -0.0972730   47.91400  30.19100  52.42600
 188   0  2  -0.0972730   49.08600  28.53000  51.71600
 189   0  2  -0.0980280   47.06400  28.19900  49.61700
 190   0  2  -0.0980280   45.90800  29.68000  50.65000
 191   0  2  -0.0851230   47.17800  26.62800  51.89500
 192   0  2  -0.1081060   47.71700  28.04300  54.37100
 193   0  2  -0.1081060   46.27900  26.44200  54.45800
 194   0  2  -0.0662750   45.62900  29.83000  55.16000
 195   0  2  -0.1299440   43.22700  28.67800  54.98400
 196   0  2  -0.1299440   43.93300  28.12400  56.95500
 197   0  2  -0.1299440   43.98300  26.69900  55.32700
 198   0  2  -0.1045930   45.19800  28.15000  58.58300
 199   0  2  -0.1045930   45.63300  30.13700  57.83800
 200   0  2  -0.0915470   48.34100  29.72700  58.21500
 201   0  2  -0.0915470   47.99400  27.70300  58.86200
 202   0  3   0.5507020   46.92700  27.43100  60.82500
 203   0  4  -0.5171240   45.85600  28.22900  53.03100
 204   0  4  -0.4024650   46.47500  28.30400  56.67300
 205   0  5  -0.4516410   48.50700  29.61800  61.06200
 206   0  6  -0.6548290   46.51700  28.23600  61.19000
 207   0  5  -0.4516410   46.27100  30.61700  60.55700
 208   0  7   1.4272400   47.18500  29.51000  60.51100
 209   0  1   0.0905900   44.09900  26.38400  52.13700
 210   0  1   0.1952130   42.92400  25.51300  51.55200
 211   0  1   0.1918010   42.00000  24.84500  52.64200
 212   0  1   0.1935420   40.81700  23.97000  52.06500
 213   0  1   0.1937750   39.89000  23.30400  53.15800
 214   0  1   0.1943790   38.71500  22.41500  52.58400
 215   0  1   0.5607130   45.02100  27.04700  51.07400
 216   0  1   0.1934500   37.78300  21.75800  53.67900
 217   0  1   0.1945970   36.62800  20.84000  53.11000
 218   0  1   0.1941310   35.69900  20.18500  54.20800
 219   0  1   0.1941930   34.55200  19.25600  53.64400
 220   0  1   0.1928750   33.69400  18.52200  54.74800
 221   0  1   0.1928080   32.47600  17.68200  54.19300
 222   0  1   0.1924970   31.78400  16.75300  55.26200
 223   0  1   0.1272260   30.46600  16.05000  54.76700
 224   0  1   0.4451810   29.97400  15.05600  58.24900
 225   0  1   0.2107670   29.23700  15.79500  59.41500
 226   0  1   0.4035830   27.76200  15.27300  59.58000
 227   0  1   0.3962620   29.71200  16.17300  61.90500
 228   0  1  -0.1928390   31.01500  16.21200  62.76400
 229   0  1   0.5500100   29.90200  14.94400  55.71000
 230   0  2  -0.1029950   44.89400  25.64700  52.93900
 231   0  2  -0.1029950   43.62300  27.37600  52.91700
 232   0  2  -0.0976900   43.45000  24.55500  50.75900
 233   0  2  -0.0976900   42.17500  26.28800  50.74000
 234   0  2  -0.0987560   41.49000  25.81200  53.43300
 235   0  2  -0.0987560   42.76400  24.08100  53.45000
 236   0  2  -0.0977880   41.33200  23.00400  51.27700
 237   0  2  -0.0977880   40.05900  24.73500  51.25400
 238   0  2  -0.0976290   39.36700  24.27100  53.93900
 239   0  2  -0.0976290   40.65200  22.54900  53.97600
 240   0  2  -0.0974600   39.24200  21.44300  51.81100
 241   0  2  -0.0974600   37.95700  23.16400  51.75700
 242   0  2  -0.1447190   45.64200  26.14500  50.28900
 243   0  2  -0.1447190   44.35500  27.89300  50.26500
 244   0  2  -0.0974120   37.23700  22.73500  54.43200
 245   0  2  -0.0974120   38.54400  21.03200  54.52400
 246   0  2  -0.0974810   37.18000  19.86500  52.35900
 247   0  2  -0.0974810   35.86300  21.56100  52.26500
 248   0  2  -0.0970610   35.14100  21.16400  54.95000
 249   0  2  -0.0970610   36.46300  19.47300  55.06300
 250   0  2  -0.0977590   35.09600  18.32600  52.83300
 251   0  2  -0.0977590   33.73200  19.98800  52.86100
 252   0  2  -0.0970830   33.22000  19.43200  55.62600
 253   0  2  -0.0970830   34.50400  17.71700  55.46500
 254   0  2  -0.0985820   32.88200  16.91700  53.16000
 255   0  2  -0.0985820   31.55900  18.52800  53.67600
 256   0  2  -0.0972730   31.49100  17.47000  56.36800
 257   0  2  -0.0972730   32.66300  15.80900  55.65800
 258   0  2  -0.0980280   30.64100  15.47900  53.55800
 259   0  2  -0.0980280   29.48500  16.96000  54.59200
 260   0  2  -0.0851230   30.75500  13.90700  55.83600
 261   0  2  -0.1081060   31.29500  15.32300  58.31200
 262   0  2  -0.1081060   29.85700  13.72100  58.39900
 263   0  2  -0.0662750   29.20700  17.11000  59.10100
 264   0  2  -0.1299440   26.80500  15.95700  58.92500
 265   0  2  -0.1299440   27.51100  15.40400  60.89600
 266   0  2  -0.1299440   27.56000  13.97900  59.26900
 267   0  2  -0.1045930   28.77600  15.43000  62.52500
 268   0  2  -0.1045930   29.21100  17.41700  61.78000
 269   0  2  -0.0915470   31.91800  17.00700  62.15600
 270   0  2  -0.0915470   31.57100  14.98300  62.80300
 271   0  3   0.5507020   30.50500  14.71100  64.76600
 272   0  4  -0.5171240   29.43400  15.50900  56.97200
 273   0  4  -0.4024650   30.05300  15.58400  60.61500
 274   0  5  -0.4516410   32.08500  16.89800  65.00300
 275   0  6  -0.6548290   30.09400  15.51600  65.13100
 276   0  5  -0.4516410   29.84800  17.89700  64.49900
 277   0  7   1.4272400   30.76200  16.78900  64.45200
 278   0  1   0.0905900   27.67600  13.66400  56.07900
 279   0  1   0.1952130   26.50000  12.79300  55.49500
 280   0  1   0.1918010   25.57600  12.12500  56.58500
 281   0  1   0.1935420   24.39300  11.25000  56.00800
 282   0  1   0.1937750   23.46600  10.58400  57.10100
 283   0  1   0.1943790   22.29200   9.69500  56.52700
 284   0  1   0.5607130   28.59800  14.32800  55.01600
 285   0  1   0.1934500   21.35900   9.03900  57.62100
 286   0  1   0.1945970   20.20500   8.12000  57.05300
 287   0  1   0.1941310   19.27600   7.46500  58.15100
 288   0  1   0.1941930   18.12800   6.53600  57.58700
 289   0  1   0.1928750   17.27000   5.80200  58.69100
 290   0  1   0.1928080   16.05200   4.96300  58.13600
 291   0  1   0.1924970   15.36100   4.03400  59.20500
 292   0  1   0.1272260   14.04200   3.33000  58.71000
 293   0  1   0.4451810   13.55100   2.33600  62.19200
 294   0  1   0.2107670   12.81400   3.07500  63.35800
 295   0  1   0.4035830   11.33900   2.55300  63.52200
 296   0  1   0.3962620   13.28800   3.45400  65.84700
 297   0  1  -0.1928390   14.59200   3.49300  66.70700
 298   0  1   0.5500100   13.47900   2.22400  59.65300
 299   0  2  -0.1029950   28.47100  12.92800  56.88200
 300   0  2  -0.1029950   27.20000  14.65600  56.85900
 301   0  2  -0.0976900   27.02600  11.83500  54.70200
 302   0  2  -0.0976900   25.75200  13.56800  54.68300
 303   0  2  -0.0987560   25.06600  13.09200  57.37600
 304   0  2  -0.0987560   26.34000  11.36100  57.39200
 305   0  2  -0.0977880   24.90900  10.28400  55.21900
 306   0  2  -0.0977880   23.63500  12.01600  55.19700
 307   0  2  -0.0976290   22.94300  11.55100  57.88100
 308   0  2  -0.0976290   24.22900   9.82900  57.91900
 309   0  2  -0.0974600   22.81900   8.72300  55.75400
 310   0  2  -0.0974600   21.53300  10.44400  55.70000
 311   0  2  -0.1447190   29.21800  13.42500  54.23200
 312   0  2  -0.1447190   27.93200  15.17400  54.20700
 313   0  2  -0.0974120   20.81300  10.01500  58.37500
 314   0  2  -0.0974120   22.12000   8.31200  58.46700
 315   0  2  -0.0974810   20.75700   7.14500  56.30100
 316   0  2  -0.0974810   19.43900   8.84200  56.20800
 317   0  2  -0.0970610   18.71700   8.44500  58.89300
 318   0  2  -0.0970610   20.03900   6.75400  59.00500
 319   0  2  -0.0977590   18.67300   5.60600  56.77500
 320   0  2  -0.0977590   17.30900   7.26800  56.80400
 321   0  2  -0.0970830   16.79600   6.71200  59.56900
 322   0  2  -0.0970830   18.08100   4.99700  59.40800
 323   0  2  -0.0985820   16.45900   4.19700  57.10300
 324   0  2  -0.0985820   15.13500   5.80800  57.61900
 325   0  2  -0.0972730   15.06800   4.75100  60.31000
 326   0  2  -0.0972730   16.24000   3.09000  59.60100
 327   0  2  -0.0980280   14.21800   2.75900  57.50100
 328   0  2  -0.0980280   13.06200   4.24000  58.53400
 329   0  2  -0.0851230   12.58300   1.80100  59.17600
 330   0  2  -0.0851230   14.33200   1.18800  59.77900
 331   0  2  -0.1081060   14.87100   2.60300  62.25500
 332   0  2  -0.1081060   13.43400   1.00200  62.34200
 333   0  2  -0.0662750   12.78300   4.39000  63.04400
 334   0  2  -0.1299440   10.38100   3.23800  62.86800
 335   0  2  -0.1299440   11.08700   2.68500  64.83900
 336   0  2  -0.1299440   11.13700   1.25900  63.21100
 337   0  2  -0.1045930   12.35200   2.71000  66.46800
 338   0  2  -0.1045930   12.78800   4.69700  65.72200
 339   0  2  -0.0915470   15.49500   4.28700  66.09900
 340   0  2  -0.0915470   15.14800   2.26300  66.74600
 341   0  3   0.5507020   14.08200   1.99100  68.70900
 342   0  4  -0.5171240   13.01100   2.78900  60.91500
 343   0  4  -0.4024650   13.63000   2.86400  64.55700
 344   0  5  -0.4516410   15.66100   4.17800  68.94600
 345   0  6  -0.6548290   13.67100   2.79600  69.07400
 346   0  5  -0.4516410   13.42500   5.17700  68.44200
 347   0  7   1.4272400   14.33900   4.07000  68.39500
 348   1  1   0.0905900    4.16600  88.02200  57.04200
 349   1  1   0.1952130    4.74500  86.87900  56.12500
 350   1  1   0.1918010    6.28600  87.01000  55.81300
 351   1  1   0.1935420    6.87700  85.86800  54.89400
 352   1  1   0.1937750    8.42200  85.99900  54.58400
 353   1  1   0.1943790    9.01200  84.86700  53.65200
 354   1  1   0.5607130    2.64600  87.90800  57.35800
 355   1  1   0.1934500   10.55900  84.99300  53.35300
 356   1  1   0.1945970   11.14700  83.88300  52.39300
 357   1  1   0.1941310   12.69400  84.01400  52.09500
 358   1  1   0.1941930   13.28300  82.91400  51.12500
 359   1  1   0.1928750   14.80300  83.11000  50.74900
 360   1  1   0.1928080   15.42600  81.95300  49.87200
 361   1  1   0.1924970   16.85400  82.27400  49.28800
 362   1  1   0.1272260   17.55500  81.06500  48.56400
 363   1  1   0.4451810   20.55900  83.14700  48.51500
 364   1  1   0.2107670   21.70700  83.28600  49.56900
 365   1  1   0.4035830   22.93600  82.37700  49.19700
 366   1  1   0.3962620   23.05000  85.24300  50.53600
 367   1  1  -0.1928390   22.76500  86.76800  50.71100
 368   1  1   0.5500100   18.84900  81.41900  47.76900
 369   1  2  -0.1029950    4.36000  89.23500  56.48600
 370   1  2  -0.1029950    4.80900  88.06400  58.22700
 371   1  2  -0.0976900    4.05100  86.86200  54.96700
 372   1  2  -0.0976900    4.50500  85.69000  56.71300
 373   1  2  -0.0987560    6.96600  87.03800  56.97800
 374   1  2  -0.0987560    6.51100  88.20700  55.23300
 375   1  2  -0.0977880    6.19500  85.84600  53.73000
 376   1  2  -0.0977880    6.64600  84.67300  55.47400
 377   1  2  -0.0976290    9.10300  86.00900  55.74800
 378   1  2  -0.0976290    8.65300  87.20000  54.01600
 379   1  2  -0.0974600    8.33500  84.86400  52.48600
 380   1  2  -0.0974600    8.77400  83.66300  54.21300
 381   1  2  -0.1447190    1.88100  87.95800  56.25000
 382   1  2  -0.1447190    2.33700  88.74300  58.00100
 383   1  2  -0.1447190    2.33600  86.77200  58.01000
 384   1  2  -0.0974120   11.23500  84.96700  54.52000
 385   1  2  -0.0974120   10.80400  86.20800  52.81800
 386   1  2  -0.0974810   10.46800  83.91400  51.22700
 387   1  2  -0.0974810   10.90700  82.66500  52.92200
 388   1  2  -0.0970610   13.37000  83.97100  53.26200
 389   1  2  -0.0970610   12.94000  85.23500  51.57800
 390   1  2  -0.0977590   12.55600  82.89300  49.98900
 391   1  2  -0.0977590   13.12000  81.69600  51.68400
 392   1  2  -0.0970830   15.53400  83.23000  51.87800
 393   1  2  -0.0970830   14.94300  84.28700  50.10300
 394   1  2  -0.0985820   14.60000  81.66200  48.84600
 395   1  2  -0.0985820   15.49000  80.82600  50.61300
 396   1  2  -0.0972730   17.66600  82.70200  50.27800
 397   1  2  -0.0972730   16.75300  83.30500  48.42300
 398   1  2  -0.0980280   16.71700  80.46300  47.69600
 399   1  2  -0.0980280   17.88700  80.11100  49.45800
 400   1  2  -0.0851230   18.59700  82.26300  46.74800
 401   1  2  -0.1081060   19.65100  84.12600  48.70800
 402   1  2  -0.1081060   21.04500  83.33100  47.27200
 403   1  2  -0.0662750   21.20900  82.88600  50.76100
 404   1  2  -0.1299440   22.96700  81.15000  49.75100
 405   1  2  -0.1299440   24.00100  83.05100  49.67200
 406   1  2  -0.1299440   23.14700  82.18700  47.88100
 407   1  2  -0.1045930   24.28500  85.06200  50.03200
 408   1  2  -0.1045930   23.01700  84.63200  51.73600
 409   1  2  -0.0915470   21.54800  86.92600  51.27000
 410   1  2  -0.0915470   22.69600  87.36100  49.50000
 411   1  3   0.5507020   24.85600  87.91700  49.80000
 412   1  4  -0.5171240   19.92300  81.84200  48.66300
 413   1  4  -0.4024650   22.04700  84.71100  49.61900
 414   1  5  -0.4516410   23.46000  88.95700  51.87500
 415   1  6  -0.6548290   25.20700  87.75500  50.69500
 416   1  5  -0.4516410   24.38900  86.84900  52.84900
 417   1  7   1.4272400   23.99000  87.63100  51.71100
 418   1  1   0.0905900   20.90000  80.19000  46.76300
 419   1  1   0.1952130   21.47900  79.04800  45.84500
 420   1  1   0.1918010   23.02000  79.17900  45.53400
 421   1  1   0.1935420   23.61100  78.03700  44.61500
 422   1  1   0.1937750   25.15600  78.16700  44.30500
 423   1  1   0.1943790   25.74600  77.03500  43.37300
 424   1  1   0.5607130   19.38000  80.07700  47.07800
 425   1  1   0.1934500   27.29300  77.16200  43.07300
 426   1  1   0.1945970   27.88100  76.05100  42.11300
 427   1  1   0.1941310   29.42800  76.18200  41.81500
 428   1  1   0.1941930   30.01700  75.08200  40.84600
 429   1  1   0.1928750   31.53700  75.27900  40.46900
 430   1  1   0.1928080   32.16000  74.12100  39.59200
 431   1  1   0.1924970   33.58900  74.44300  39.00800
 432   1  1   0.1272260   34.29000  73.23400  38.28400
 433   1  1   0.4451810   37.29300  75.31600  38.23600
 434   1  1   0.2107670   38.44100  75.45400  39.29000
 435   1  1   0.4035830   39.67000  74.54600  38.91800
 436   1  1   0.3962620   39.78400  77.41100  40.25600
 437   1  1  -0.1928390   39.49900  78.93700  40.43200
 438   1  1   0.5500100   35.58300  73.58700  37.48900
 439   1  2  -0.1029950   21.09400  81.40300  46.20600
 440   1  2  -0.1029950   21.54300  80.23200  47.94700
 441   1  2  -0.0976900   20.78500  79.03000  44.68800
 442   1  2  -0.0976900   21.23900  77.85800  46.43400
 443   1  2  -0.0987560   23.70000  79.20600  46.69800
 444   1  2  -0.0987560   23.24500  80.37600  44.95300
 445   1  2  -0.0977880   22.92900  78.01500  43.45100
 446   1  2  -0.0977880   23.38000  76.84200  45.19500
 447   1  2  -0.0976290   25.83700  78.17800  45.46800
 448   1  2  -0.0976290   25.38700  79.36900  43.73600
 449   1  2  -0.0974600   25.06900  77.03300  42.20600
 450   1  2  -0.0974600   25.50800  75.83100  43.93300
 451   1  2  -0.1447190   18.61600  80.12600  45.97100
 452   1  2  -0.1447190   19.07000  78.94000  47.73100
 453   1  2  -0.0974120   27.96900  77.13600  44.24000
 454   1  2  -0.0974120   27.53800  78.37700  42.53900
 455   1  2  -0.0974810   27.20200  76.08200  40.94800
 456   1  2  -0.0974810   27.64100  74.83400  42.64200
 457   1  2  -0.0970610   30.10400  76.14000  42.98300
 458   1  2  -0.0970610   29.67400  77.40400  41.29800
 459   1  2  -0.0977590   29.29000  75.06200  39.70900
 460   1  2  -0.0977590   29.85400  73.86500  41.40400
 461   1  2  -0.0970830   32.26800  75.39900  41.59800
 462   1  2  -0.0970830   31.67700  76.45500  39.82300
 463   1  2  -0.0985820   31.33400  73.83100  38.56600
 464   1  2  -0.0985820   32.22400  72.99500  40.33400
 465   1  2  -0.0972730   34.40000  74.87100  39.99800
 466   1  2  -0.0972730   33.48700  75.47300  38.14300
 467   1  2  -0.0980280   33.45100  72.63200  37.41600
 468   1  2  -0.0980280   34.62100  72.27900  39.17800
 469   1  2  -0.0851230   35.33100  74.43200  36.46800
 470   1  2  -0.1081060   36.38500  76.29500  38.42900
 471   1  2  -0.1081060   37.78000  75.50000  36.99300
 472   1  2  -0.0662750   37.94300  75.05500  40.48200
 473   1  2  -0.1299440   39.70100  73.31900  39.47100
 474   1  2  -0.1299440   40.73500  75.22000  39.39300
 475   1  2  -0.1299440   39.88100  74.35600  37.60200
 476   1  2  -0.1045930   41.01900  77.23100  39.75200
 477   1  2  -0.1045930   39.75100  76.80100  41.45600