LAMMPS data file via MDAnalysis

         632  atoms
         360  bonds
         180  angles
           0  dihedrals
           0  impropers

           5  atom types
           1  bond types
           1  angle types
           0  dihedral types
           0  improper types

0.000000 14.424978 xlo xhi
0.000000 14.990877 ylo yhi
0.000000 32.066769 zlo zhi

Masses

1  196.967   # Au_AuAuAuAuAu_i_Au6
2   35.450   # Cl__Cl
3    1.008   # H_O_H2O
4   22.990   # Na__Na
5   15.999   # O_HH_H2O

Pair Coeffs

    1      5.29000000      2.62904212  # Au_AuAuAuAuAu_i_Au6
    2      0.11780000      4.41720000  # Cl__Cl
    3      0.00000000      0.00000000  # H_O_H2O
    4      0.00280000      3.33040000  # Na__Na
    5      0.10200000      3.18800000  # O_HH_H2O

Bond Coeffs

    1    450.000000      0.957200  #  O-H   | H2O

Angle Coeffs

    1     55.000000    104.520000  #  H-O-H    | H2O

Atoms

  1    0  1   0.0000000    2.16375   1.24924   1.17779
  2    0  1   0.0000000    0.72125   3.74772   1.17779
  3    0  1   0.0000000    0.72125   2.08207   3.53338
  4    0  1   0.0000000    2.16375   4.58055   3.53338
  5    0  1   0.0000000    0.72125   0.41641   5.88897
  6    0  1   0.0000000    2.16375   2.91489   5.88897
  7    0  1   0.0000000    2.16375   6.24620   1.17779
  8    0  1   0.0000000    0.72125   8.74468   1.17779
  9    0  1   0.0000000    0.72125   7.07903   3.53338
 10    0  1   0.0000000    2.16375   9.57751   3.53338
 11    0  1   0.0000000    0.72125   5.41337   5.88897
 12    0  1   0.0000000    2.16375   7.91185   5.88897
 13    0  1   0.0000000    2.16375  11.24316   1.17779
 14    0  1   0.0000000    0.72125  13.74164   1.17779
 15    0  1   0.0000000    0.72125  12.07598   3.53338
 16    0  1   0.0000000    2.16375  14.57446   3.53338
 17    0  1   0.0000000    0.72125  10.41033   5.88897
 18    0  1   0.0000000    2.16375  12.90881   5.88897
 19    0  1   0.0000000    5.04874   1.24924   1.17779
 20    0  1   0.0000000    3.60624   3.74772   1.17779
 21    0  1   0.0000000    3.60624   2.08207   3.53338
 22    0  1   0.0000000    5.04874   4.58055   3.53338
 23    0  1   0.0000000    3.60624   0.41641   5.88897
 24    0  1   0.0000000    5.04874   2.91489   5.88897
 25    0  1   0.0000000    5.04874   6.24620   1.17779
 26    0  1   0.0000000    3.60624   8.74468   1.17779
 27    0  1   0.0000000    3.60624   7.07903   3.53338
 28    0  1   0.0000000    5.04874   9.57751   3.53338
 29    0  1   0.0000000    3.60624   5.41337   5.88897
 30    0  1   0.0000000    5.04874   7.91185   5.88897
 31    0  1   0.0000000    5.04874  11.24316   1.17779
 32    0  1   0.0000000    3.60624  13.74164   1.17779
 33    0  1   0.0000000    3.60624  12.07598   3.53338
 34    0  1   0.0000000    5.04874  14.57446   3.53338
 35    0  1   0.0000000    3.60624  10.41033   5.88897
 36    0  1   0.0000000    5.04874  12.90881   5.88897
 37    0  1   0.0000000    7.93374   1.24924   1.17779
 38    0  1   0.0000000    6.49124   3.74772   1.17779
 39    0  1   0.0000000    6.49124   2.08207   3.53338
 40    0  1   0.0000000    7.93374   4.58055   3.53338
 41    0  1   0.0000000    6.49124   0.41641   5.88897
 42    0  1   0.0000000    7.93374   2.91489   5.88897
 43    0  1   0.0000000    7.93374   6.24620   1.17779
 44    0  1   0.0000000    6.49124   8.74468   1.17779
 45    0  1   0.0000000    6.49124   7.07903   3.53338
 46    0  1   0.0000000    7.93374   9.57751   3.53338
 47    0  1   0.0000000    6.49124   5.41337   5.88897
 48    0  1   0.0000000    7.93374   7.91185   5.88897
 49    0  1   0.0000000    7.93374  11.24316   1.17779
 50    0  1   0.0000000    6.49124  13.74164   1.17779
 51    0  1   0.0000000    6.49124  12.07598   3.53338
 52    0  1   0.0000000    7.93374  14.57446   3.53338
 53    0  1   0.0000000    6.49124  10.41033   5.88897
 54    0  1   0.0000000    7.93374  12.90881   5.88897
 55    0  1   0.0000000   10.81873   1.24924   1.17779
 56    0  1   0.0000000    9.37624   3.74772   1.17779
 57    0  1   0.0000000    9.37624   2.08207   3.53338
 58    0  1   0.0000000   10.81873   4.58055   3.53338
 59    0  1   0.0000000    9.37624   0.41641   5.88897
 60    0  1   0.0000000   10.81873   2.91489   5.88897
 61    0  1   0.0000000   10.81873   6.24620   1.17779
 62    0  1   0.0000000    9.37624   8.74468   1.17779
 63    0  1   0.0000000    9.37624   7.07903   3.53338
 64    0  1   0.0000000   10.81873   9.57751   3.53338
 65    0  1   0.0000000    9.37624   5.41337   5.88897
 66    0  1   0.0000000   10.81873   7.91185   5.88897
 67    0  1   0.0000000   10.81873  11.24316   1.17779
 68    0  1   0.0000000    9.37624  13.74164   1.17779
 69    0  1   0.0000000    9.37624  12.07598   3.53338
 70    0  1   0.0000000   10.81873  14.57446   3.53338
 71    0  1   0.0000000    9.37624  10.41033   5.88897
 72    0  1   0.0000000   10.81873  12.90881   5.88897
 73    0  1   0.0000000   13.70373   1.24924   1.17779
 74    0  1   0.0000000   12.26123   3.74772   1.17779
 75    0  1   0.0000000   12.26123   2.08207   3.53338
 76    0  1   0.0000000   13.70373   4.58055   3.53338
 77    0  1   0.0000000   12.26123   0.41641   5.88897
 78    0  1   0.0000000   13.70373   2.91489   5.88897
 79    0  1   0.0000000   13.70373   6.24620   1.17779
 80    0  1   0.0000000   12.26123   8.74468   1.17779
 81    0  1   0.0000000   12.26123   7.07903   3.53338
 82    0  1   0.0000000   13.70373   9.57751   3.53338
 83    0  1   0.0000000   12.26123   5.41337   5.88897
 84    0  1   0.0000000   13.70373   7.91185   5.88897
 85    0  1   0.0000000   13.70373  11.24316   1.17779
 86    0  1   0.0000000   12.26123  13.74164   1.17779
 87    0  1   0.0000000   12.26123  12.07598   3.53338
 88    0  1   0.0000000   13.70373  14.57446   3.53338
 89    0  1   0.0000000   12.26123  10.41033   5.88897
 90    0  1   0.0000000   13.70373  12.90881   5.88897
 91    1  4   0.8000000    5.64800  12.29400   8.53277
 92    2  2  -0.8000000    6.40700   3.11100  14.76877
 93    3  5  -0.8300000   12.71900  11.30200  17.48177
 94    3  3   0.4150000   13.44100  10.79100  17.87677
 95    3  3   0.4150000   12.25200  11.67500  18.24377
 96    4  5  -0.8300000   11.84300   7.12400  20.56977
 97    4  3   0.4150000   11.76400   6.16300  20.47977
 98    4  3   0.4150000   12.76700   7.26000  20.82477
 99    5  5  -0.8300000   10.17700  14.01400  26.52077
100    5  3   0.4150000    9.21200  13.96800  26.44577
101    5  3   0.4150000   10.49500  13.58700  25.71177
102    6  5  -0.8300000    4.57500   1.47800   8.06677
103    6  3   0.4150000    4.54500   1.00000   8.90777
104    6  3   0.4150000    5.43000   1.93200   8.08577
105    7  5  -0.8300000    3.86200   9.16800  15.71377
106    7  3   0.4150000    3.65100   9.97600  15.22477
107    7  3   0.4150000    4.07100   8.52300  15.02177
108    8  5  -0.8300000   12.78000  11.80600  21.16477
109    8  3   0.4150000   12.48400  12.47200  20.52777
110    8  3   0.4150000   13.06300  11.06300  20.61177
111    9  5  -0.8300000    2.13100   5.67000  22.06077
112    9  3   0.4150000    2.46100   6.27900  21.38377
113    9  3   0.4150000    2.66600   4.87200  21.93977
114   10  5  -0.8300000    3.52700   5.24500  27.52677
115   10  3   0.4150000    3.48900   5.88900  26.80477
116   10  3   0.4150000    4.38300   4.81000  27.40677
117   11  5  -0.8300000    8.78200   3.79200  24.07377
118   11  3   0.4150000    8.43200   3.00300  24.51277
119   11  3   0.4150000    9.38400   4.17700  24.72677
120   12  5  -0.8300000   13.42600   9.84500  27.51177
121   12  3   0.4150000   12.93200   9.31000  28.14977
122   12  3   0.4150000   12.80300  10.54100  27.25777
123   13  5  -0.8300000    5.30200   6.18500  30.11777
124   13  3   0.4150000    5.06400   6.34700  31.04277
125   13  3   0.4150000    6.26400   6.29200  30.10177
126   14  5  -0.8300000    5.04600   2.64000  26.15477
127   14  3   0.4150000    5.06500   2.16300  25.31277
128   14  3   0.4150000    5.38600   3.51900  25.93477
129   15  5  -0.8300000   12.69700   6.95000  17.72977
130   15  3   0.4150000   12.07200   6.23400  17.54577
131   15  3   0.4150000   13.41500   6.80300  17.09677
132   16  5  -0.8300000   10.22600  10.99600  14.74177
133   16  3   0.4150000   10.15500  11.61100  13.99777
134   16  3   0.4150000   10.56800  10.18300  14.34277
135   17  5  -0.8300000    4.59900   7.53800  20.88377
136   17  3   0.4150000    4.52800   6.96900  21.66377
137   17  3   0.4150000    4.14200   7.04100  20.18977
138   18  5  -0.8300000   10.08600  13.62200  16.42877
139   18  3   0.4150000   10.92900  13.99800  16.13777
140   18  3   0.4150000    9.92400  12.89800  15.80577
141   19  5  -0.8300000    5.45100   8.90400  10.66977
142   19  3   0.4150000    6.12000   8.24200  10.44477
143   19  3   0.4150000    4.67500   8.63900  10.15377
144   20  5  -0.8300000    3.37300   2.15800  27.54577
145   20  3   0.4150000    3.88100   1.34600  27.68477
146   20  3   0.4150000    2.48300   1.84300  27.32877
147   21  5  -0.8300000    3.60400   4.41800  15.12977
148   21  3   0.4150000    3.04700   4.98000  14.57077
149   21  3   0.4150000    3.15900   4.42800  15.98977
150   22  5  -0.8300000    7.86300   4.79400   9.63377
151   22  3   0.4150000    8.01000   3.85500   9.82077
152   22  3   0.4150000    7.28100   4.79000   8.85977
153   23  5  -0.8300000   11.64600  10.32400  12.43277
154   23  3   0.4150000   12.38600  10.22600  11.81577
155   23  3   0.4150000   11.18300  11.11500  12.11977
156   24  5  -0.8300000    3.43500   3.73900  29.71977
157   24  3   0.4150000    4.02300   4.48900  29.54977
158   24  3   0.4150000    2.81700   3.75100  28.97477
159   25  5  -0.8300000   12.82000   8.14500  25.10577
160   25  3   0.4150000   12.69900   7.30400  25.56977
161   25  3   0.4150000   13.43000   8.64000  25.67077
162   26  5  -0.8300000    1.57100   4.36200  17.50377
163   26  3   0.4150000    1.93400   3.68600  18.09477
164   26  3   0.4150000    1.37300   5.10600  18.09077
165   27  5  -0.8300000   12.40800  13.84100  23.36177
166   27  3   0.4150000   11.51600  13.77200  23.73277
167   27  3   0.4150000   12.30900  13.52400  22.45277
168   28  5  -0.8300000   10.35600  13.71200  18.60777
169   28  3   0.4150000    9.84500  12.89900  18.48477
170   28  3   0.4150000   11.17200  13.41300  19.03377
171   29  5  -0.8300000    7.07000   9.32000  28.23277
172   29  3   0.4150000    6.87000  10.26600  28.19977
173   29  3   0.4150000    6.76700   9.04600  29.11077
174   30  5  -0.8300000    9.12400   6.30300  20.30877
175   30  3   0.4150000    9.70800   5.64900  19.89777
176   30  3   0.4150000    9.70400   6.78600  20.91577
177   31  5  -0.8300000    5.35700   5.92100  15.34977
178   31  3   0.4150000    4.51600   6.40000  15.38277
179   31  3   0.4150000    5.33000   5.34500  16.12777
180   32  5  -0.8300000   12.70800  13.98800  26.54277
181   32  3   0.4150000   13.42000  13.36900  26.76277
182   32  3   0.4150000   12.69300  13.99300  25.57477
183   33  5  -0.8300000    5.99900   9.25000  14.24977
184   33  3   0.4150000    5.40200   9.38800  13.49977
185   33  3   0.4150000    5.81600   9.99900  14.83577
186   34  5  -0.8300000    8.49000   4.57400  29.68277
187   34  3   0.4150000    7.99500   4.97000  30.41477
188   34  3   0.4150000    8.83000   3.74500  30.05077
189   35  5  -0.8300000    8.66700   3.78700  27.61677
190   35  3   0.4150000    8.39000   3.70100  26.69277
191   35  3   0.4150000    8.26400   3.02300  28.05477
192   36  5  -0.8300000   12.57200  11.34900   9.93577
193   36  3   0.4150000   11.62300  11.22600   9.78877
194   36  3   0.4150000   12.90100  11.67300   9.08477
195   37  5  -0.8300000    5.12600  13.56400  21.80877
196   37  3   0.4150000    5.68500  13.97900  22.48077
197   37  3   0.4150000    4.54500  12.97900  22.31577
198   38  5  -0.8300000   11.03700   9.50600  21.65677
199   38  3   0.4150000   11.86200   9.21100  21.24677
200   38  3   0.4150000   10.43900   8.75200  21.55077
201   39  5  -0.8300000    8.91100  12.88200  30.06077
202   39  3   0.4150000    8.65300  12.88500  29.12777
203   39  3   0.4150000    8.17600  13.32500  30.50877
204   40  5  -0.8300000    7.69500  10.62100  20.37677
205   40  3   0.4150000    7.37100  11.14500  19.62977
206   40  3   0.4150000    8.10200   9.84700  19.96077
207   41  5  -0.8300000   10.62300  11.23500  20.36977
208   41  3   0.4150000    9.73600  11.31800  19.99177
209   41  3   0.4150000   11.07900  10.63000  19.76777
210   42  5  -0.8300000    8.42200   9.15900  25.65777
211   42  3   0.4150000    9.01000   9.79800  25.23177
212   42  3   0.4150000    7.84300   9.70400  26.21077
213   43  5  -0.8300000    3.56700   1.71500  16.37977
214   43  3   0.4150000    3.34900   2.46100  16.95577
215   43  3   0.4150000    3.75900   0.99200  16.99477
216   44  5  -0.8300000   10.56500   5.24900  29.43577
217   44  3   0.4150000   11.38900   4.74500  29.36277
218   44  3   0.4150000   10.72300   6.03500  28.89377
219   45  5  -0.8300000   10.92200   8.68600  27.35377
220   45  3   0.4150000   10.03800   8.51300  26.99877
221   45  3   0.4150000   11.43000   8.97800  26.58377
222   46  5  -0.8300000    4.45700   8.54600  23.41977
223   46  3   0.4150000    4.73800   7.67400  23.73477
224   46  3   0.4150000    4.68100   9.14200  24.14877
225   47  5  -0.8300000   13.00900   8.88300  18.87077
226   47  3   0.4150000   13.43800   9.03800  19.72477
227   47  3   0.4150000   12.07200   8.78600  19.09377
228   48  5  -0.8300000   10.40200  11.30800  24.48677
229   48  3   0.4150000   11.19700  11.74200  24.82877
230   48  3   0.4150000   10.19600  11.79900  23.67877
231   49  5  -0.8300000    8.62600   6.69100  26.47877
232   49  3   0.4150000    8.41300   7.07600  27.34077
233   49  3   0.4150000    8.98700   5.81900  26.69377
234   50  5  -0.8300000    6.40700  10.88500  30.25777
235   50  3   0.4150000    6.36100  11.85000  30.31777
236   50  3   0.4150000    5.97100  10.57900  31.06677
237   51  5  -0.8300000    1.83500   6.53800  24.05677
238   51  3   0.4150000    2.51400   7.11300  23.67377
239   51  3   0.4150000    1.00200   6.97600  23.82877
240   52  5  -0.8300000   11.77800   2.27900  19.90977
241   52  3   0.4150000   12.02500   1.35100  20.03177
242   52  3   0.4150000   11.47600   2.55800  20.78677
243   53  5  -0.8300000   10.25100  13.85400  13.60077
244   53  3   0.4150000    9.55800  13.79900  12.92577
245   53  3   0.4150000   11.03400  13.49000  13.16277
246   54  5  -0.8300000   10.75000   1.92600  25.55677
247   54  3   0.4150000   11.57600   1.86100  26.05777
248   54  3   0.4150000   10.06700   2.00300  26.23877
249   55  5  -0.8300000    2.01600   6.46300  30.54477
250   55  3   0.4150000    2.71600   5.82300  30.73977
251   55  3   0.4150000    2.35900   7.29900  30.89177
252   56  5  -0.8300000    2.50300   8.73000  21.14077
253   56  3   0.4150000    1.72100   8.26000  20.81477
254   56  3   0.4150000    3.00000   8.94200  20.33677
255   57  5  -0.8300000    6.63200   5.01200  28.27677
256   57  3   0.4150000    6.49300   4.26000  27.68377
257   57  3   0.4150000    6.67500   5.77500  27.68177
258   58  5  -0.8300000   12.59400  11.09700  29.37477
259   58  3   0.4150000   11.88200  11.00600  30.02477
260   58  3   0.4150000   13.04600  11.91300  29.63477
261   59  5  -0.8300000    3.61800   9.87400  26.18177
262   59  3   0.4150000    4.15400   9.53400  26.91277
263   59  3   0.4150000    3.13800  10.61900  26.57077
264   60  5  -0.8300000    1.63000   3.23200  12.85077
265   60  3   0.4150000    2.49500   3.28800  13.28177
266   60  3   0.4150000    1.00200   3.20600  13.58677
267   61  5  -0.8300000   11.04400   5.85500  25.70177
268   61  3   0.4150000   10.42500   6.30400  25.10877
269   61  3   0.4150000   11.66900   5.42100  25.10377
270   62  5  -0.8300000    8.90100  11.85900  25.98877
271   62  3   0.4150000    8.23100  11.85000  25.28977
272   62  3   0.4150000    8.38800  11.96000  26.80377
273   63  5  -0.8300000    5.59800  13.96300  30.33077
274   63  3   0.4150000    6.24400  14.03000  29.61177
275   63  3   0.4150000    6.14200  13.88300  31.12777
276   64  5  -0.8300000    7.83600   6.95500  15.44677
277   64  3   0.4150000    8.24500   7.19100  16.29177
278   64  3   0.4150000    7.00200   7.44600  15.44377
279   65  5  -0.8300000    2.35700  11.98400  18.11777
280   65  3   0.4150000    1.75900  11.47500  17.55177
281   65  3   0.4150000    3.22500  11.58600  17.95877
282   66  5  -0.8300000    0.99700   1.71100  15.70977
283   66  3   0.4150000    1.49800   1.01300  16.15577
284   66  3   0.4150000    1.65900   2.39100  15.52077
285   67  5  -0.8300000   11.97800   4.47600  22.51477
286   67  3   0.4150000   11.30100   4.49100  21.82277
287   67  3   0.4150000   12.49500   5.27900  22.35477
288   68  5  -0.8300000    5.95400   1.05300  16.88077
289   68  3   0.4150000    6.87400   1.06300  17.18277
290   68  3   0.4150000    5.71200   1.98900  16.83377
291   69  5  -0.8300000    3.60200  12.82700  30.81677
292   69  3   0.4150000    2.83100  13.34400  31.09377
293   69  3   0.4150000    3.67700  13.00800  29.86877
294   70  5  -0.8300000    8.13900   7.31400  11.21377
295   70  3   0.4150000    7.78000   6.79800  11.95077
296   70  3   0.4150000    8.94100   7.71600  11.57877
297   71  5  -0.8300000   13.32800  11.66600  25.35677
298   71  3   0.4150000   13.42900  12.19100  24.54977
299   71  3   0.4150000   13.42300  10.75100  25.05477
300   72  5  -0.8300000   12.82000   2.66600   9.29677
301   72  3   0.4150000   13.29400   3.49900   9.43677
302   72  3   0.4150000   13.10200   2.38100   8.41577
303   73  5  -0.8300000    7.61100   5.09900  16.71077
304   73  3   0.4150000    7.75400   4.23600  17.12477
305   73  3   0.4150000    7.18000   5.62300  17.40177
306   74  5  -0.8300000   11.51300   8.18800  31.06377
307   74  3   0.4150000   11.31600   7.57600  30.34077
308   74  3   0.4150000   12.00900   8.90200  30.63777
309   75  5  -0.8300000    6.46500   6.09500  22.22777
310   75  3   0.4150000    6.31700   6.25100  23.17177
311   75  3   0.4150000    6.88900   5.22500  22.19777
312   76  5  -0.8300000    8.61900   2.72100  19.14177
313   76  3   0.4150000    8.23400   2.02700  19.69577
314   76  3   0.4150000    9.48900   2.87900  19.53577
315   77  5  -0.8300000   13.06500   4.95200  11.07177
316   77  3   0.4150000   12.16100   4.61300  10.99277
317   77  3   0.4150000   13.42500   4.48300  11.83777
318   78  5  -0.8300000   11.79000   7.18800  23.42177
319   78  3   0.4150000   11.20200   7.02300  22.67077
320   78  3   0.4150000   12.64700   7.37300  23.01177
321   79  5  -0.8300000    9.92000   3.06300  14.00977
322   79  3   0.4150000   10.57200   2.86800  13.32077
323   79  3   0.4150000   10.44700   3.43300  14.73277
324   80  5  -0.8300000    8.02600   7.05000   8.42877
325   80  3   0.4150000    7.40900   6.96300   9.16977
326   80  3   0.4150000    8.89000   6.85300   8.81877
327   81  5  -0.8300000    7.10800   5.24700  25.59277
328   81  3   0.4150000    7.62300   5.50100  24.81377
329   81  3   0.4150000    6.19800   5.48400  25.35977
330   82  5  -0.8300000   11.63000   4.08300  26.83777
331   82  3   0.4150000   10.76600   4.29900  27.21777
332   82  3   0.4150000   12.25200   4.62200  27.34777
333   83  5  -0.8300000    9.99900   8.38400  16.87277
334   83  3   0.4150000    9.90200   9.12200  16.25277
335   83  3   0.4150000   10.39000   7.67800  16.33677
336   84  5  -0.8300000    7.58900   1.74700   8.47377
337   84  3   0.4150000    7.51900   2.62200   8.06677
338   84  3   0.4150000    8.53800   1.63800   8.63177
339   85  5  -0.8300000    5.23800  12.55900  16.01077
340   85  3   0.4150000    5.13800  12.75600  15.06877
341   85  3   0.4150000    5.96700  11.92200  16.04177
342   86  5  -0.8300000    8.42500  13.23700  22.58677
343   86  3   0.4150000    9.27300  13.61400  22.85977
344   86  3   0.4150000    7.96600  13.97500  22.16077
345   87  5  -0.8300000   13.43300  13.52300  18.17077
346   87  3   0.4150000   13.42300  13.98900  19.01977
347   87  3   0.4150000   12.77200  13.99100  17.63977
348   88  5  -0.8300000    4.58400  11.88100  19.63777
349   88  3   0.4150000    4.03100  12.36600  20.26777
350   88  3   0.4150000    5.26900  11.47700  20.18877
351   89  5  -0.8300000    5.29100   7.19200  13.48777
352   89  3   0.4150000    4.37200   7.00000  13.25277
353   89  3   0.4150000    5.74300   7.25700  12.63377
354   90  5  -0.8300000   12.55800  12.61200  15.67277
355   90  3   0.4150000   13.44500  12.46800  15.31377
356   90  3   0.4150000   11.97700  12.53100  14.90277
357   91  5  -0.8300000    0.97100   3.70500  21.16477
358   91  3   0.4150000    1.57900   2.96800  21.32177
359   91  3   0.4150000    1.24600   4.05800  20.30577
360   92  5  -0.8300000   11.58100   2.73400  17.70377
361   92  3   0.4150000   11.47400   2.05300  17.02377
362   92  3   0.4150000   12.51400   2.98400  17.64177
363   93  5  -0.8300000    9.39800  13.40600  20.59077
364   93  3   0.4150000    8.78600  13.99000  20.12077
365   93  3   0.4150000   10.11800  13.99300  20.86477
366   94  5  -0.8300000    8.61100  10.88300  30.92077
367   94  3   0.4150000    8.26600   9.98300  31.00777
368   94  3   0.4150000    9.56300  10.78500  31.06477
369   95  5  -0.8300000   10.67200   8.77800  10.73377
370   95  3   0.4150000   10.95500   9.09000   9.86177
371   95  3   0.4150000   10.12500   9.50000  11.07577
372   96  5  -0.8300000    2.14300   3.85100  25.90777
373   96  3   0.4150000    2.07700   4.75300  25.56277
374   96  3   0.4150000    3.09500   3.70900  26.01177
375   97  5  -0.8300000    6.34500   1.71300  11.30277
376   97  3   0.4150000    6.01400   2.50500  11.74977
377   97  3   0.4150000    6.27800   1.01800  11.97377
378   98  5  -0.8300000    9.06200   2.46200  16.13977
379   98  3   0.4150000    8.52400   2.09300  15.42377
380   98  3   0.4150000    8.90100   1.86500  16.88477
381   99  5  -0.8300000    7.14500  14.00700  24.19877
382   99  3   0.4150000    6.85600  13.08700  24.11477
383   99  3   0.4150000    8.01000  13.94300  24.62777
384  100  5  -0.8300000   13.31500   8.43100   9.47377
385  100  3   0.4150000   13.42500   9.24400   9.98777
386  100  3   0.4150000   13.19800   7.74300  10.14477
387  101  5  -0.8300000    6.47600   3.87600  23.89077
388  101  3   0.4150000    6.44600   2.96200  23.57177
389  101  3   0.4150000    5.60300   4.23000  23.66977
390  102  5  -0.8300000    9.29200   6.86400  13.66677
391  102  3   0.4150000    9.83200   6.69300  14.45177
392  102  3   0.4150000    9.00300   7.78200  13.77577
393  103  5  -0.8300000   10.39000   8.97200  23.73377
394  103  3   0.4150000    9.94100   8.18200  24.06877
395  103  3   0.4150000   11.01900   9.19800  24.43377
396  104  5  -0.8300000    5.31200   9.29600  19.76977
397  104  3   0.4150000    6.07100   9.02100  19.23677
398  104  3   0.4150000    4.68400   9.64700  19.12177
399  105  5  -0.8300000   12.65500   4.15800  14.49377
400  105  3   0.4150000   13.42500   3.91000  13.96177
401  105  3   0.4150000   12.08100   4.62700  13.87077
402  106  5  -0.8300000    2.76800   8.96900  18.14977
403  106  3   0.4150000    3.45800   8.37700  17.81877
404  106  3   0.4150000    2.41200   9.38500  17.35177
405  107  5  -0.8300000    1.54000  10.47700  15.60377
406  107  3   0.4150000    1.15100   9.59100  15.56177
407  107  3   0.4150000    0.99800  11.00100  14.99577
408  108  5  -0.8300000    3.86400   1.77500  30.66077
409  108  3   0.4150000    3.02900   2.04800  31.06777
410  108  3   0.4150000    4.52100   2.36900  31.05377
411  109  5  -0.8300000    0.99800   2.60600  23.91877
412  109  3   0.4150000    1.05700   3.56800  24.01677
413  109  3   0.4150000    1.06500   2.27300  24.82577
414  110  5  -0.8300000    1.56000  11.74800  30.27577
415  110  3   0.4150000    2.15800  11.01600  30.48477
416  110  3   0.4150000    0.99700  11.82300  31.05977
417  111  5  -0.8300000    6.10400   4.61800  12.71977
418  111  3   0.4150000    6.93400   5.04600  12.97577
419  111  3   0.4150000    5.54700   4.69500  13.50777
420  112  5  -0.8300000    5.35100   7.76700  16.88777
421  112  3   0.4150000    5.78700   7.31000  17.62077
422  112  3   0.4150000    5.55300   8.70100  17.04077
423  113  5  -0.8300000    1.90000   8.35100  25.41877
424  113  3   0.4150000    2.18700   8.99200  24.75177
425  113  3   0.4150000    2.72200   7.92500  25.70277
426  114  5  -0.8300000   10.02800   4.98300  11.41877
427  114  3   0.4150000   10.06000   5.88900  11.07877
428  114  3   0.4150000    9.61700   5.07300  12.29077
429  115  5  -0.8300000   12.24800  13.91900  31.03577
430  115  3   0.4150000   12.52900  13.99600  30.11277
431  115  3   0.4150000   11.83900  13.04300  31.08477
432  116  5  -0.8300000    6.72700   3.26200  29.61677
433  116  3   0.4150000    5.80600   3.05000  29.40777
434  116  3   0.4150000    6.78600   3.12800  30.57477
435  117  5  -0.8300000   12.83300   3.12800  24.02777
436  117  3   0.4150000   13.37200   2.93900  23.24577
437  117  3   0.4150000   13.14600   3.99500  24.32477
438  118  5  -0.8300000    4.45500   9.08600  30.51477
439  118  3   0.4150000    3.92200   9.62500  31.11677
440  118  3   0.4150000    4.99700   8.54100  31.10377
441  119  5  -0.8300000   11.23700  13.37000  28.32277
442  119  3   0.4150000   10.88600  12.93100  29.11077
443  119  3   0.4150000   11.41700  12.64300  27.70877
444  120  5  -0.8300000    7.97400   9.63400  12.15077
445  120  3   0.4150000    7.13900   9.14400  12.17377
446  120  3   0.4150000    7.78600  10.38900  11.57477
447  121  5  -0.8300000    4.32300  13.69700  27.32177
448  121  3   0.4150000    3.67800  13.00700  27.53377
449  121  3   0.4150000    4.57100  14.05900  28.18477
450  122  5  -0.8300000    3.86300  10.70200  21.69377
451  122  3   0.4150000    4.43900   9.92400  21.67677
452  122  3   0.4150000    3.15900  10.45900  22.31177
453  123  5  -0.8300000    5.52900   1.40200  20.00677
454  123  3   0.4150000    4.87900   1.00100  20.60177
455  123  3   0.4150000    6.26200   1.64700  20.59177
456  124  5  -0.8300000    1.06700   5.44200  15.47677
457  124  3   0.4150000    1.00100   5.78100  14.57277
458  124  3   0.4150000    1.00000   4.48200  15.37277
459  125  5  -0.8300000    3.17900  13.71600  10.41677
460  125  3   0.4150000    2.40000  13.86400  10.97177
461  125  3   0.4150000    3.91300  13.68500  11.04677
462  126  5  -0.8300000   13.42500  12.37800  12.29577
463  126  3   0.4150000   12.71600  12.88900  11.87977
464  126  3   0.4150000   12.99400  11.94800  13.04877
465  127  5  -0.8300000    6.95600   8.90300  21.56377
466  127  3   0.4150000    7.56800   8.15700  21.64377
467  127  3   0.4150000    6.15600   8.60100  22.01777
468  128  5  -0.8300000    7.69200   1.00800  28.64477
469  128  3   0.4150000    7.90200   1.41100  29.50077
470  128  3   0.4150000    6.82000   1.36500  28.42577
471  129  5  -0.8300000    6.99300   1.00000  25.49877
472  129  3   0.4150000    7.32600   1.78200  25.96177
473  129  3   0.4150000    7.30200   1.11700  24.58877
474  130  5  -0.8300000    5.28600   1.10300  23.39777
475  130  3   0.4150000    4.41800   1.16400  22.97377
476  130  3   0.4150000    5.90100   0.99800  22.65777
477  131  5  -0.8300000    5.33200   7.20600  26.73277
478  131  3   0.4150000    5.73400   8.02200  27.06377
479  131  3   0.4150000    4.86400   7.48300  25.93277
480  132  5  -0.8300000    2.36900  12.42100  21.70677
481  132  3   0.4150000    1.81200  13.14800  21.39477
482  132  3   0.4150000    2.41700  12.55500  22.66477
483  133  5  -0.8300000    5.36100   5.81700  11.01777
484  133  3   0.4150000    5.64500   5.49000  10.15277
485  133  3   0.4150000    4.75100   6.53900  10.80777
486  134  5  -0.8300000    1.00000  11.28200  25.98077
487  134  3   0.4150000    1.03700  10.31800  26.06377
488  134  3   0.4150000    1.19300  11.44400  25.04577
489  135  5  -0.8300000   10.15200   3.12900   8.72877
490  135  3   0.4150000   10.98600   3.45500   8.36177
491  135  3   0.4150000   10.16200   3.43900   9.64677
492  136  5  -0.8300000    1.01700  10.10600  21.98977
493  136  3   0.4150000    0.98300   9.35600  22.60077
494  136  3   0.4150000    0.99900  10.88100  22.56977
495  137  5  -0.8300000    6.93100   6.93300  19.93177
496  137  3   0.4150000    7.45200   7.11900  19.13677
497  137  3   0.4150000    6.17100   6.43300  19.60077
498  138  5  -0.8300000    2.49700   8.36900  13.49577
499  138  3   0.4150000    1.62300   8.03800  13.74677
500  138  3   0.4150000    2.42300   8.52700  12.54377
501  139  5  -0.8300000    3.96700   7.14900  28.53577
502  139  3   0.4150000    4.16400   8.09600  28.57277
503  139  3   0.4150000    3.00000   7.10900  28.56377
504  140  5  -0.8300000   12.54600   6.92000  14.74777
505  140  3   0.4150000   11.83300   7.57200  14.67977
506  140  3   0.4150000   12.19400   6.25000  15.35177
507  141  5  -0.8300000    8.19000  10.17100  14.67377
508  141  3   0.4150000    7.97600   9.40600  15.22777
509  141  3   0.4150000    7.79000  10.91800  15.14277
510  142  5  -0.8300000    2.54100   4.58900  10.48977
511  142  3   0.4150000    2.52700   3.62700  10.38677
512  142  3   0.4150000    3.43300   4.77700  10.81577
513  143  5  -0.8300000    6.73100  12.45000  28.16077
514  143  3   0.4150000    5.77500  12.29400  28.17877
515  143  3   0.4150000    6.82500  13.26000  27.63977
516  144  5  -0.8300000    7.43600   4.29500  20.12177
517  144  3   0.4150000    8.20200   4.27100  20.71277
518  144  3   0.4150000    7.71300   4.88300  19.40377
519  145  5  -0.8300000    5.66500  11.44300  25.64777
520  145  3   0.4150000    6.36300  11.31400  26.30577
521  145  3   0.4150000    4.92800  11.81300  26.15577
522  146  5  -0.8300000    5.77900   3.81800  18.05577
523  146  3   0.4150000    5.53900   4.65000  18.48677
524  146  3   0.4150000    5.89600   3.19800  18.78977
525  147  5  -0.8300000    5.40100   4.18000  20.94477
526  147  3   0.4150000    4.86400   4.81000  21.44677
527  147  3   0.4150000    5.65100   3.51100  21.59877
528  148  5  -0.8300000   12.58300  10.05200  23.14577
529  148  3   0.4150000   12.07700  10.86800  23.02177