LAMMPS data file via MDAnalysis

         632  atoms
         360  bonds
         180  angles
           0  dihedrals
           0  impropers

           5  atom types
           1  bond types
           1  angle types
           0  dihedral types
           0  improper types

0.000000 14.420000 xlo xhi
0.000000 14.985000 ylo yhi
0.000000 32.063999 zlo zhi

Masses

1  196.967   # Au_Au6_i
2   35.450   # Cl_Cl
3    1.008   # H_H2O
4   22.990   # Na_Na
5   15.999   # O_H2O

Pair Coeffs

    1      5.29000000      2.62904212  # Au_Au6_i
    2      0.11780000      4.41720000  # Cl_Cl
    3      0.00000000      0.00000000  # H_H2O
    4      0.00280000      3.33040000  # Na_Na
    5      0.10200000      3.18800000  # O_H2O

Bond Coeffs

    1    450.000000      0.957200  #  O-H   | H2O

Angle Coeffs

    1     55.000000    104.520000  #  H-O-H    | H2O

Atoms

  1   0      1  0.0000000   0.72100   0.41650   1.17750
  2   0      1  0.0000000   2.16300   2.91350   1.17750
  3   0      1  0.0000000   0.72100   2.08150   3.53250
  4   0      1  0.0000000   2.16300   4.57850   3.53250
  5   0      1  0.0000000   2.16300   1.24850   5.88650
  6   0      1  0.0000000   0.72100   3.74650   5.88650
  7   0      1  0.0000000   0.72100   5.41150   1.17750
  8   0      1  0.0000000   2.16300   7.90850   1.17750
  9   0      1  0.0000000   0.72100   7.07650   3.53250
 10   0      1  0.0000000   2.16300   9.57350   3.53250
 11   0      1  0.0000000   2.16300   6.24350   5.88650
 12   0      1  0.0000000   0.72100   8.74150   5.88650
 13   0      1  0.0000000   0.72100  10.40650   1.17750
 14   0      1  0.0000000   2.16300  12.90350   1.17750
 15   0      1  0.0000000   0.72100  12.07150   3.53250
 16   0      1  0.0000000   2.16300  14.56850   3.53250
 17   0      1  0.0000000   2.16300  11.23850   5.88650
 18   0      1  0.0000000   0.72100  13.73650   5.88650
 19   0      1  0.0000000   3.60500   0.41650   1.17750
 20   0      1  0.0000000   5.04700   2.91350   1.17750
 21   0      1  0.0000000   3.60500   2.08150   3.53250
 22   0      1  0.0000000   5.04700   4.57850   3.53250
 23   0      1  0.0000000   5.04700   1.24850   5.88650
 24   0      1  0.0000000   3.60500   3.74650   5.88650
 25   0      1  0.0000000   3.60500   5.41150   1.17750
 26   0      1  0.0000000   5.04700   7.90850   1.17750
 27   0      1  0.0000000   3.60500   7.07650   3.53250
 28   0      1  0.0000000   5.04700   9.57350   3.53250
 29   0      1  0.0000000   5.04700   6.24350   5.88650
 30   0      1  0.0000000   3.60500   8.74150   5.88650
 31   0      1  0.0000000   3.60500  10.40650   1.17750
 32   0      1  0.0000000   5.04700  12.90350   1.17750
 33   0      1  0.0000000   3.60500  12.07150   3.53250
 34   0      1  0.0000000   5.04700  14.56850   3.53250
 35   0      1  0.0000000   5.04700  11.23850   5.88650
 36   0      1  0.0000000   3.60500  13.73650   5.88650
 37   0      1  0.0000000   6.48900   0.41650   1.17750
 38   0      1  0.0000000   7.93100   2.91350   1.17750
 39   0      1  0.0000000   6.48900   2.08150   3.53250
 40   0      1  0.0000000   7.93100   4.57850   3.53250
 41   0      1  0.0000000   7.93100   1.24850   5.88650
 42   0      1  0.0000000   6.48900   3.74650   5.88650
 43   0      1  0.0000000   6.48900   5.41150   1.17750
 44   0      1  0.0000000   7.93100   7.90850   1.17750
 45   0      1  0.0000000   6.48900   7.07650   3.53250
 46   0      1  0.0000000   7.93100   9.57350   3.53250
 47   0      1  0.0000000   7.93100   6.24350   5.88650
 48   0      1  0.0000000   6.48900   8.74150   5.88650
 49   0      1  0.0000000   6.48900  10.40650   1.17750
 50   0      1  0.0000000   7.93100  12.90350   1.17750
 51   0      1  0.0000000   6.48900  12.07150   3.53250
 52   0      1  0.0000000   7.93100  14.56850   3.53250
 53   0      1  0.0000000   7.93100  11.23850   5.88650
 54   0      1  0.0000000   6.48900  13.73650   5.88650
 55   0      1  0.0000000   9.37300   0.41650   1.17750
 56   0      1  0.0000000  10.81500   2.91350   1.17750
 57   0      1  0.0000000   9.37300   2.08150   3.53250
 58   0      1  0.0000000  10.81500   4.57850   3.53250
 59   0      1  0.0000000  10.81500   1.24850   5.88650
 60   0      1  0.0000000   9.37300   3.74650   5.88650
 61   0      1  0.0000000   9.37300   5.41150   1.17750
 62   0      1  0.0000000  10.81500   7.90850   1.17750
 63   0      1  0.0000000   9.37300   7.07650   3.53250
 64   0      1  0.0000000  10.81500   9.57350   3.53250
 65   0      1  0.0000000  10.81500   6.24350   5.88650
 66   0      1  0.0000000   9.37300   8.74150   5.88650
 67   0      1  0.0000000   9.37300  10.40650   1.17750
 68   0      1  0.0000000  10.81500  12.90350   1.17750
 69   0      1  0.0000000   9.37300  12.07150   3.53250
 70   0      1  0.0000000  10.81500  14.56850   3.53250
 71   0      1  0.0000000  10.81500  11.23850   5.88650
 72   0      1  0.0000000   9.37300  13.73650   5.88650
 73   0      1  0.0000000  12.25700   0.41650   1.17750
 74   0      1  0.0000000  13.69900   2.91350   1.17750
 75   0      1  0.0000000  12.25700   2.08150   3.53250
 76   0      1  0.0000000  13.69900   4.57850   3.53250
 77   0      1  0.0000000  13.69900   1.24850   5.88650
 78   0      1  0.0000000  12.25700   3.74650   5.88650
 79   0      1  0.0000000  12.25700   5.41150   1.17750
 80   0      1  0.0000000  13.69900   7.90850   1.17750
 81   0      1  0.0000000  12.25700   7.07650   3.53250
 82   0      1  0.0000000  13.69900   9.57350   3.53250
 83   0      1  0.0000000  13.69900   6.24350   5.88650
 84   0      1  0.0000000  12.25700   8.74150   5.88650
 85   0      1  0.0000000  12.25700  10.40650   1.17750
 86   0      1  0.0000000  13.69900  12.90350   1.17750
 87   0      1  0.0000000  12.25700  12.07150   3.53250
 88   0      1  0.0000000  13.69900  14.56850   3.53250
 89   0      1  0.0000000  13.69900  11.23850   5.88650
 90   0      1  0.0000000  12.25700  13.73650   5.88650
 91   1      4  0.8000000   4.09200   3.99200  18.39200
 92   2      2 -0.8000000  12.75800  13.60000  11.86500
 93   3      5 -0.8300000   3.98700   7.28500  26.65800
 94   3      3  0.4150000   4.74000   7.79200  26.99500
 95   3      3  0.4150000   3.49200   7.04400  27.45400
 96   4      5 -0.8300000  13.33700   4.62100  28.47900
 97   4      3  0.4150000  13.41900   4.89600  29.40400
 98   4      3  0.4150000  13.47800   3.66400  28.50600
 99   5      5 -0.8300000  13.40300   4.79700  21.52500
100   5      3  0.4150000  13.39800   5.56000  22.12100
101   5      3  0.4150000  13.40000   4.03400  22.12100
102   6      5 -0.8300000   6.79300   4.36300  24.82100
103   6      3  0.4150000   7.26600   4.78800  25.55100
104   6      3  0.4150000   6.15900   5.03400  24.52900
105   7      5 -0.8300000   7.48500   4.87200  20.18100
106   7      3  0.4150000   7.63800   5.29000  21.04100
107   7      3  0.4150000   6.71100   4.30900  20.32800
108   8      5 -0.8300000  13.41600  10.42200  17.70000
109   8      3  0.4150000  13.13200  11.18700  17.17800
110   8      3  0.4150000  13.21000   9.66400  17.13400
111   9      5 -0.8300000   5.54500   3.19200  31.14900
112   9      3  0.4150000   5.71100   2.64700  30.36600
113   9      3  0.4150000   5.80900   4.08300  30.87400
114  10      5 -0.8300000   9.51600   5.07900  28.42900
115  10      3  0.4150000   9.22900   5.23300  29.34000
116  10      3  0.4150000   8.73500   5.29300  27.89800
117  11      5 -0.8300000   5.17300   1.33700  22.22100
118  11      3  0.4150000   6.08000   1.00500  22.29100
119  11      3  0.4150000   4.73900   1.00300  23.01900
120  12      5 -0.8300000   4.19000  12.90400  27.80800
121  12      3  0.4150000   3.95800  12.11700  28.32200
122  12      3  0.4150000   3.44000  13.50200  27.94300
123  13      5 -0.8300000  12.30500   1.52400  21.12300
124  13      3  0.4150000  12.85300   1.00000  21.72600
125  13      3  0.4150000  12.93200   2.13200  20.70500
126  14      5 -0.8300000   9.80900   7.20700  18.72900
127  14      3  0.4150000   9.03400   6.79100  18.32600
128  14      3  0.4150000   9.65600   8.15500  18.60800
129  15      5 -0.8300000   8.35300   3.71900  22.40500
130  15      3  0.4150000   8.35600   2.77900  22.17200
131  15      3  0.4150000   8.85400   3.75700  23.23300
132  16      5 -0.8300000  12.09800   6.31000  11.65700
133  16      3  0.4150000  11.29700   6.32100  12.20100
134  16      3  0.4150000  12.81900   6.28200  12.30300
135  17      5 -0.8300000   3.68800  10.03800  12.80500
136  17      3  0.4150000   4.05100   9.17800  12.54800
137  17      3  0.4150000   4.08900  10.65800  12.17900
138  18      5 -0.8300000  13.42000   1.41600  11.56500
139  18      3  0.4150000  13.38800   2.30000  11.17200
140  18      3  0.4150000  12.59200   1.00300  11.28000
141  19      5 -0.8300000  11.68000   5.97800  16.53000
142  19      3  0.4150000  12.22800   6.49000  15.91900
143  19      3  0.4150000  11.23000   5.33600  15.96100
144  20      5 -0.8300000   7.81500   8.12200  21.52900
145  20      3  0.4150000   7.84500   8.66500  22.33000
146  20      3  0.4150000   7.33000   7.33000  21.80100
147  21      5 -0.8300000   6.93300   4.79900  15.23500
148  21      3  0.4150000   6.63900   5.44400  14.57600
149  21      3  0.4150000   7.02800   3.97700  14.73300
150  22      5 -0.8300000   1.72800  10.54200  11.65600
151  22      3  0.4150000   1.00900  10.97600  11.17300
152  22      3  0.4150000   2.31500  10.21600  10.95800
153  23      5 -0.8300000   7.77100   3.11800  18.75700
154  23      3  0.4150000   8.18500   2.54200  18.09800
155  23      3  0.4150000   6.92000   3.35400  18.36100
156  24      5 -0.8300000   6.39300   9.53700  25.64600
157  24      3  0.4150000   5.85800  10.26800  25.98600
158  24      3  0.4150000   6.95900   9.29300  26.39300
159  25      5 -0.8300000  12.10000   3.47200   9.05600
160  25      3  0.4150000  11.79600   2.55500   8.99400
161  25      3  0.4150000  12.26500   3.72700   8.13600
162  26      5 -0.8300000  12.78100  10.08200  10.70000
163  26      3  0.4150000  13.20200   9.90700  11.55400
164  26      3  0.4150000  13.39600  10.68300  10.25500
165  27      5 -0.8300000   2.50500   5.48100  15.28600
166  27      3  0.4150000   3.45800   5.53800  15.44300
167  27      3  0.4150000   2.41700   5.60300  14.33000
168  28      5 -0.8300000   1.31500  10.84000  20.58700
169  28      3  0.4150000   2.24200  11.00300  20.81300
170  28      3  0.4150000   1.23400  11.16600  19.67900
171  29      5 -0.8300000  12.11600  12.40100  30.42600
172  29      3  0.4150000  12.83800  12.30100  31.06400
173  29      3  0.4150000  11.43200  12.87700  30.91800
174  30      5 -0.8300000   1.33700   7.62100  27.32400
175  30      3  0.4150000   1.01100   8.44400  26.93200
176  30      3  0.4150000   1.05600   6.93600  26.70000
177  31      5 -0.8300000   8.57800   5.02900  16.66900
178  31      3  0.4150000   8.04500   5.02500  17.47700
179  31      3  0.4150000   8.90900   4.12200  16.60100
180  32      5 -0.8300000   5.21500   5.67100   9.37200
181  32      3  0.4150000   4.66000   5.94500   8.62800
182  32      3  0.4150000   5.94100   5.18300   8.95600
183  33      5 -0.8300000  13.09500   5.72400  19.11300
184  33      3  0.4150000  13.15400   5.76200  18.14700
185  33      3  0.4150000  13.41900   4.83900  19.33300
186  34      5 -0.8300000   1.20600   0.99400  27.69700
187  34      3  0.4150000   1.00800   1.21800  28.61800
188  34      3  0.4150000   2.17400   0.98200  27.66200
189  35      5 -0.8300000   2.68400   8.77300  28.94600
190  35      3  0.4150000   2.55700   9.60000  29.43400
191  35      3  0.4150000   2.83200   9.06100  28.03300
192  36      5 -0.8300000   8.28200  11.03800  26.13500
193  36      3  0.4150000   8.49400  11.97100  25.99000
194  36      3  0.4150000   8.23200  10.66700  25.24100
195  37      5 -0.8300000   9.94800   5.81200  22.62300
196  37      3  0.4150000  10.11400   5.07700  22.01500
197  37      3  0.4150000   9.54200   6.49100  22.06400
198  38      5 -0.8300000   3.17500   4.26600  12.25900
199  38      3  0.4150000   3.51500   4.28700  11.35200
200  38      3  0.4150000   2.21800   4.36800  12.15200
201  39      5 -0.8300000   3.72500   1.94800  10.33600
202  39      3  0.4150000   3.88500   2.12100  11.27500
203  39      3  0.4150000   3.90400   1.00100  10.23800
204  40      5 -0.8300000   5.48500  11.61100  23.12500
205  40      3  0.4150000   5.78700  11.78400  24.02800
206  40      3  0.4150000   4.59200  11.25700  23.24000
207  41      5 -0.8300000  11.46400   8.81600  31.06400
208  41      3  0.4150000  11.86400   8.35500  30.31200
209  41      3  0.4150000  10.61100   9.12300  30.72400
210  42      5 -0.8300000   5.58500  13.23700  20.32500
211  42      3  0.4150000   6.09300  13.98200  19.97200
212  42      3  0.4150000   4.76400  13.24800  19.81300
213  43      5 -0.8300000   1.02500   2.74300   9.63800
214  43      3  0.4150000   0.99900   3.25900  10.45700
215  43      3  0.4150000   1.16400   1.83300   9.93900
216  44      5 -0.8300000   7.58300   8.50400  13.16100
217  44      3  0.4150000   8.00000   9.08800  13.81200
218  44      3  0.4150000   6.81600   8.14300  13.62800
219  45      5 -0.8300000   8.21200   6.98900   8.81800
220  45      3  0.4150000   7.32500   7.16600   8.47400
221  45      3  0.4150000   8.43600   7.79000   9.31400
222  46      5 -0.8300000  11.92500  10.40500  29.52400
223  46      3  0.4150000  11.18500  10.88800  29.12900
224  46      3  0.4150000  12.47500  10.15700  28.76600
225  47      5 -0.8300000   9.47800   5.50100  11.25900
226  47      3  0.4150000   8.64000   5.26700  11.68400
227  47      3  0.4150000   9.24300   5.62100  10.32800
228  48      5 -0.8300000  10.82900   8.12800  13.36700
229  48      3  0.4150000  10.23900   8.60400  13.96900
230  48      3  0.4150000  11.42800   7.64700  13.95600
231  49      5 -0.8300000   1.00700   2.25900  25.92500
232  49      3  0.4150000   1.04100   2.44300  24.97500
233  49      3  0.4150000   1.85200   2.59300  26.25900
234  50      5 -0.8300000   1.14800   9.05700  23.14600
235  50      3  0.4150000   1.00700   8.31100  22.54600
236  50      3  0.4150000   1.33000   9.80200  22.55500
237  51      5 -0.8300000  11.45000   3.59400  23.03700
238  51      3  0.4150000  10.95300   3.65100  23.86600
239  51      3  0.4150000  11.22100   2.72100  22.68700
240  52      5 -0.8300000   9.72800  10.97600  13.08900
241  52      3  0.4150000   9.33900  11.76700  13.48900
242  52      3  0.4150000  10.59100  10.89500  13.52100
243  53      5 -0.8300000   9.67500   4.78000  13.60500
244  53      3  0.4150000  10.52700   5.14300  13.88900
245  53      3  0.4150000   9.20100   4.62000  14.43400
246  54      5 -0.8300000  12.44100   6.29000  26.40100
247  54      3  0.4150000  11.85900   6.46200  27.15500
248  54      3  0.4150000  13.28400   6.04200  26.80700
249  55      5 -0.8300000   3.90800   8.28600  10.54200
250  55      3  0.4150000   3.46200   8.73200   9.80700
251  55      3  0.4150000   4.15900   7.42500  10.17600
252  56      5 -0.8300000   3.74100  10.16800  25.40800
253  56      3  0.4150000   3.15900  10.61900  24.77900
254  56      3  0.4150000   3.19700   9.44600  25.75400
255  57      5 -0.8300000   5.52700   9.55800  28.03900
256  57      3  0.4150000   4.76000  10.07700  28.32200
257  57      3  0.4150000   5.82100   9.11600  28.84900
258  58      5 -0.8300000  11.32700   4.35100  27.41400
259  58      3  0.4150000  11.30500   3.81800  28.22200
260  58      3  0.4150000  12.01300   3.93100  26.87500
261  59      5 -0.8300000  10.67800   8.32500  26.77000
262  59      3  0.4150000  11.21700   8.20200  25.97500
263  59      3  0.4150000  10.11900   9.08700  26.55900
264  60      5 -0.8300000  12.02100   6.26500  30.97900
265  60      3  0.4150000  12.04600   5.30200  31.07300
266  60      3  0.4150000  12.94400   6.51000  30.82100
267  61      5 -0.8300000  10.48900   1.16100  11.90700
268  61      3  0.4150000  10.51300   2.05500  11.53600
269  61      3  0.4150000   9.82000   1.21500  12.60500
270  62      5 -0.8300000  11.16300   2.02600  17.08700
271  62      3  0.4150000  10.61100   2.15600  17.87200
272  62      3  0.4150000  12.01000   1.72200  17.44500
273  63      5 -0.8300000   9.46600   1.41400  23.68000
274  63      3  0.4150000  10.35000   1.03500  23.79100
275  63      3  0.4150000   9.36900   2.01000  24.43700
276  64      5 -0.8300000   8.98700  10.71500  28.75700
277  64      3  0.4150000   9.31100  11.30100  28.05700
278  64      3  0.4150000   9.14200   9.82600  28.40800
279  65      5 -0.8300000   7.21000  13.34200  23.48100
280  65      3  0.4150000   6.69800  13.98200  23.99500
281  65      3  0.4150000   7.78200  12.91800  24.13700
282  66      5 -0.8300000   8.43300   2.03100  31.05800
283  66      3  0.4150000   7.99800   1.71600  30.25300
284  66      3  0.4150000   8.44300   2.99400  30.95700
285  67      5 -0.8300000   2.44600   7.57800  24.11300
286  67      3  0.4150000   1.81700   7.78800  24.81900
287  67      3  0.4150000   3.25400   7.33100  24.58600
288  68      5 -0.8300000   2.70400   1.69200  13.34700
289  68      3  0.4150000   3.37500   1.00000  13.25500
290  68      3  0.4150000   3.04300   2.25500  14.05700
291  69      5 -0.8300000   5.57300  12.04300  17.73800
292  69      3  0.4150000   6.19000  12.53700  18.29700
293  69      3  0.4150000   6.08900  11.83500  16.94600
294  70      5 -0.8300000   2.08800   8.74900  16.09000
295  70      3  0.4150000   2.84700   8.91800  16.66700
296  70      3  0.4150000   1.59300   8.05600  16.55000
297  71      5 -0.8300000   4.52100   6.94200  22.83300
298  71      3  0.4150000   4.89500   6.06800  23.01200
299  71      3  0.4150000   4.18800   6.87300  21.92600
300  72      5 -0.8300000   7.05300   7.30800  19.62000
301  72      3  0.4150000   7.42000   8.05300  19.12200
302  72      3  0.4150000   6.62100   6.76500  18.94500
303  73      5 -0.8300000   7.81600  11.49300  22.46600
304  73      3  0.4150000   7.18900  11.21100  21.78400
305  73      3  0.4150000   7.86000  10.73900  23.07100
306  74      5 -0.8300000   4.72900   6.12800  13.75000
307  74      3  0.4150000   5.16200   6.75600  13.15300
308  74      3  0.4150000   4.84700   5.27100  13.31400
309  75      5 -0.8300000   1.06400  10.85400  14.19700
310  75      3  0.4150000   1.00600   9.99900  14.64700
311  75      3  0.4150000   1.00200  11.50100  14.91500
312  76      5 -0.8300000   6.82500   1.22300  24.35400
313  76      3  0.4150000   5.98900   1.08100  24.82100
314  76      3  0.4150000   7.50100   1.00400  25.01200
315  77      5 -0.8300000  10.73700  12.49100  16.16000
316  77      3  0.4150000  11.43600  12.89700  15.62600
317  77      3  0.4150000  10.15600  12.07400  15.50800
318  78      5 -0.8300000   8.83800   1.77000   8.96500
319  78      3  0.4150000   9.79100   1.66500   8.83200
320  78      3  0.4150000   8.59000   1.00300   9.50200
321  79      5 -0.8300000   4.39300  13.98500  14.90400
322  79      3  0.4150000   3.78300  13.81700  15.63800
323  79      3  0.4150000   4.72900  13.10700  14.67400
324  80      5 -0.8300000   3.19400   4.86700  27.53600
325  80      3  0.4150000   2.33500   5.19300  27.23000
326  80      3  0.4150000   3.25500   3.97700  27.15900
327  81      5 -0.8300000   4.21300  13.08000  22.08200
328  81      3  0.4150000   3.55900  12.59200  21.56100
329  81      3  0.4150000   4.11900  13.99500  21.77700
330  82      5 -0.8300000  10.55300  10.28100  16.79900
331  82      3  0.4150000  11.33000  10.35900  16.22700
332  82      3  0.4150000  10.83200  10.69200  17.63000
333  83      5 -0.8300000  13.09300   9.42800  14.11200
334  83      3  0.4150000  12.47500  10.13000  14.36200
335  83      3  0.4150000  13.35100   9.03100  14.95600
336  84      5 -0.8300000   6.65100   2.46800  26.38700
337  84      3  0.4150000   6.28100   1.80300  26.98600
338  84      3  0.4150000   7.01300   3.14200  26.98100
339  85      5 -0.8300000  11.40400   5.66000   9.60400
340  85      3  0.4150000  12.06800   6.25900   9.23100
341  85      3  0.4150000  10.92600   5.32900   8.82900
342  86      5 -0.8300000  10.66900   8.53300  10.44300
343  86      3  0.4150000  11.20500   8.58300  11.24700
344  86      3  0.4150000  10.57700   7.58300  10.28000
345  87      5 -0.8300000   7.64200  12.89900  14.31200
346  87      3  0.4150000   6.82200  12.44500  14.55300
347  87      3  0.4150000   8.15500  12.90800  15.13300
348  88      5 -0.8300000  11.89100   7.95900  18.60400
349  88      3  0.4150000  11.72100   8.91200  18.56700
350  88      3  0.4150000  12.22100   7.74500  17.71900
351  89      5 -0.8300000  10.59300  12.80700  11.15400
352  89      3  0.4150000  10.79400  12.63400  12.08500
353  89      3  0.4150000  10.44500  11.92600  10.77900
354  90      5 -0.8300000   1.30700  12.09300  17.49100
355  90      3  0.4150000   1.44500  11.24000  17.05400
356  90      3  0.4150000   1.00000  12.67300  16.78000
357  91      5 -0.8300000   1.81900  13.33300  11.08200
358  91      3  0.4150000   1.42200  13.98400  10.48700
359  91      3  0.4150000   2.21700  12.68200  10.48600
360  92      5 -0.8300000   3.13400  12.26400  13.33700
361  92      3  0.4150000   2.21500  12.45400  13.10000
362  92      3  0.4150000   3.06500  11.76200  14.16200
363  93      5 -0.8300000  10.64800   2.21000  26.87600
364  93      3  0.4150000  11.04600   1.56200  26.27600
365  93      3  0.4150000  10.20500   2.83500  26.28400
366  94      5 -0.8300000   8.98100   9.94800  10.45000
367  94      3  0.4150000   8.19900  10.34800  10.04200
368  94      3  0.4150000   8.73300   9.84300  11.37900
369  95      5 -0.8300000  11.54600   6.51400  21.17300
370  95      3  0.4150000  12.33200   6.92800  20.79000
371  95      3  0.4150000  11.00800   6.27500  20.40400
372  96      5 -0.8300000   2.97500  13.33900  18.19900
373  96      3  0.4150000   3.85200  13.52400  17.83200
374  96      3  0.4150000   2.88600  13.97400  18.92500
375  97      5 -0.8300000  10.28000  13.37300  23.21700
376  97      3  0.4150000  11.02200  13.98100  23.08300
377  97      3  0.4150000   9.50700  13.95400  23.26500
378  98      5 -0.8300000   2.24100   6.10700   9.19200
379  98      3  0.4150000   2.11600   7.02700   9.46800
380  98      3  0.4150000   2.36700   5.62800  10.02400
381  99      5 -0.8300000   4.67600   9.19400  19.74600
382  99      3  0.4150000   4.86700   9.86900  20.41300
383  99      3  0.4150000   4.43400   8.41300  20.26500
384 100      5 -0.8300000   7.76500   3.68200   9.14000
385 100      3  0.4150000   7.23400   3.51000   8.34900
386 100      3  0.4150000   8.60600   4.01000   8.79100
387 101      5 -0.8300000   4.39300   6.33900  29.32800
388 101      3  0.4150000   4.69900   6.04700  30.19900
389 101      3  0.4150000   4.75500   7.23300  29.24000
390 102      5 -0.8300000   1.96100   4.66700  31.10200
391 102      3  0.4150000   1.38900   4.31400  30.40500
392 102      3  0.4150000   2.73100   5.00600  30.62200
393 103      5 -0.8300000  10.11400   5.09200  25.73800
394 103      3  0.4150000  10.79800   5.48700  25.17900
395 103      3  0.4150000   9.48500   4.71500  25.10600
396 104      5 -0.8300000   7.46400   8.92100  30.29500
397 104      3  0.4150000   7.15800   8.43100  31.07200
398 104      3  0.4150000   8.34400   9.23600  30.54800
399 105      5 -0.8300000   1.03000   4.76700  24.79100
400 105      3  0.4150000   0.90600   4.50500  25.71500
401 105      3  0.4150000   1.46800   5.62800  24.84800
402 106      5 -0.8300000  13.19300   8.24200  27.07500
403 106      3  0.4150000  13.40700   8.25200  28.02000
404 106      3  0.4150000  13.15500   9.17900  26.83400
405 107      5 -0.8300000  13.10200   2.70700  13.31600
406 107      3  0.4150000  12.28800   2.18400  13.28700
407 107      3  0.4150000  13.38800   2.64400  14.23800
408 108      5 -0.8300000  13.41700   9.75600  20.87200
409 108      3  0.4150000  13.23600   9.77300  19.92200
410 108      3  0.4150000  13.42600   8.81300  21.09200
411 109      5 -0.8300000  11.05900   2.76500  30.31600
412 109      3  0.4150000  10.38200   2.12500  30.05300
413 109      3  0.4150000  10.61200   3.32600  30.96600
414 110      5 -0.8300000   4.80900  11.84300  10.09000
415 110      3  0.4150000   5.21500  12.72000  10.15800
416 110      3  0.4150000   5.26100  11.43400   9.33800
417 111      5 -0.8300000   3.15600  11.16500  18.52400
418 111      3  0.4150000   3.27300  10.21300  18.39400
419 111      3  0.4150000   3.75200  11.37600  19.25800
420 112      5 -0.8300000  10.19400   7.16700  29.51700
421 112      3  0.4150000  10.13100   7.93900  28.93600
422 112      3  0.4150000  10.90000   6.63400  29.12400
423 113      5 -0.8300000   6.18000  13.38300  26.42400
424 113      3  0.4150000   6.12700  12.44000  26.20800
425 113      3  0.4150000   7.06900  13.63900  26.14100
426 114      5 -0.8300000   3.34600   8.93400  22.63700
427 114      3  0.4150000   3.47900   9.73500  22.11000
428 114      3  0.4150000   3.91100   9.06700  23.41200
429 115      5 -0.8300000   6.30300  10.69700  12.54900
430 115      3  0.4150000   6.38200  10.53900  13.50100
431 115      3  0.4150000   6.12100   9.82100  12.18000
432 116      5 -0.8300000   8.24000  12.99900  20.37000
433 116      3  0.4150000   7.80000  13.29700  21.17900
434 116      3  0.4150000   7.60600  12.38500  19.97100
435 117      5 -0.8300000   5.55300   3.70400  22.88900
436 117      3  0.4150000   4.86200   3.23600  23.38000
437 117      3  0.4150000   6.30900   3.10000  22.91500
438 118      5 -0.8300000   8.36100   6.54000  13.76200
439 118      3  0.4150000   9.05500   6.84500  13.16000
440 118      3  0.4150000   8.49300   7.07100  14.56000
441 119      5 -0.8300000   6.13200   9.29300  17.53300
442 119      3  0.4150000   6.07500   9.95900  18.23300
443 119      3  0.4150000   5.65900   8.53000  17.89600
444 120      5 -0.8300000   8.32700   2.20200  11.32600
445 120      3  0.4150000   8.56800   3.07000  11.68000
446 120      3  0.4150000   7.39300   2.10500  11.56000
447 121      5 -0.8300000  12.10100  11.30600  26.93000
448 121      3  0.4150000  11.24200  11.72200  27.09400
449 121      3  0.4150000  12.72800  11.86600  27.40900
450 122      5 -0.8300000   1.47200  11.53000  28.04000
451 122      3  0.4150000   1.14800  10.61800  28.01400
452 122      3  0.4150000   1.85900  11.61500  28.92400
453 123      5 -0.8300000  11.79200  12.66700  24.67000
454 123      3  0.4150000  11.47900  11.77300  24.87200
455 123      3  0.4150000  11.62100  13.16500  25.48200
456 124      5 -0.8300000  10.49300  10.70200  21.63600
457 124      3  0.4150000   9.56500  10.42700  21.68700
458 124      3  0.4150000  10.76900  10.76600  22.56200
459 125      5 -0.8300000   9.69600   1.56300  20.92700
460 125      3  0.4150000  10.09000   1.00100  21.61000
461 125      3  0.4150000   9.68300   1.00000  20.13900
462 126      5 -0.8300000   4.94100   1.24900  20.03800
463 126      3  0.4150000   5.86600   1.46100  19.84500
464 126      3  0.4150000   4.49700   2.10900  20.03100
465 127      5 -0.8300000   0.98400  10.76000  25.06600
466 127      3  0.4150000   1.03900   9.80400  25.20500
467 127      3  0.4150000   1.33500  11.13700  25.88500
468 128      5 -0.8300000  13.25000   2.71400  30.47000
469 128      3  0.4150000  13.42000   3.45800  31.06600
470 128      3  0.4150000  13.08100   1.97000  31.06700
471 129      5 -0.8300000  10.98900   3.28700  20.29300
472 129      3  0.4150000  10.09400   3.64900  20.36300
473 129      3  0.4150000  11.52500   3.87900  20.83900
474 130      5 -0.8300000   8.43600  10.36800  19.69600
475 130      3  0.4150000   8.21600  10.07700  18.79900
476 130      3  0.4150000   9.21500  10.93000  19.57600
477 131      5 -0.8300000   4.61500   4.17500  29.05500
478 131      3  0.4150000   3.81800   3.66600  29.26300
479 131      3  0.4150000   5.12400   3.58800  28.47700
480 132      5 -0.8300000  12.46700   6.55400  24.22300
481 132      3  0.4150000  11.77100   6.59900  23.55100
482 132      3  0.4150000  13.23500   6.95500  23.79300
483 133      5 -0.8300000   6.91200   6.90300  11.30800
484 133      3  0.4150000   7.80500   7.27400  11.35600
485 133      3  0.4150000   6.95700   6.27900  10.56900
486 134      5 -0.8300000   7.68700   6.74400  29.76500
487 134      3  0.4150000   7.64800   6.18300  30.55400
488 134      3  0.4150000   6.83800   6.58900  29.32500
489 135      5 -0.8300000   6.23700   4.04600  11.91000
490 135      3  0.4150000   6.73600   4.15100  11.08700
491 135      3  0.4150000   6.78200   4.49500  12.57300
492 136      5 -0.8300000   7.69100  10.20100  15.68300
493 136      3  0.4150000   8.39900  10.72600  15.28400
494 136      3  0.4150000   7.93100  10.15600  16.62000
495 137      5 -0.8300000   6.48700  13.89000  16.17700
496 137      3  0.4150000   5.69100  13.98600  16.72000
497 137      3  0.4150000   7.21500  13.98200  16.80900
498 138      5 -0.8300000   8.08400   6.13500  24.01700
499 138      3  0.4150000   8.26600   7.05000  23.75900
500 138      3  0.4150000   7.83400   5.70300  23.18700
501 139      5 -0.8300000   4.76700   8.51700  14.51900
502 139      3  0.4150000   5.35500   9.18600  14.89800
503 139      3  0.4150000   4.36500   8.09300  15.29100
504 140      5 -0.8300000   8.63500   0.95000  27.71200
505 140      3  0.4150000   9.15500   1.42700  28.37400
506 140      3  0.4150000   8.55000   1.58000  26.98100
507 141      5 -0.8300000   4.20600  11.01800  15.89200
508 141      3  0.4150000   4.48400  10.38100  16.56700
509 141      3  0.4150000   3.84300  11.75600  16.40200
510 142      5 -0.8300000   8.71900   7.33100  26.68900
511 142      3  0.4150000   8.02400   7.30000  27.36200
512 142      3  0.4150000   8.52900   6.56900  26.12100
513 143      5 -0.8300000   1.57600  12.46200  22.50100
514 143      3  0.4150000   1.72500  11.85300  23.23800
515 143      3  0.4150000   1.45400  13.32200  22.92900
516 144      5 -0.8300000  10.69300   4.36800  17.86100
517 144      3  0.4150000  11.47600   4.34100  18.42900
518 144      3  0.4150000   9.99400   4.70500  18.43900
519 145      5 -0.8300000   4.45000   3.61300  15.05800
520 145      3  0.4150000   4.98100   3.31000  14.30800