LAMMPS data file via MDAnalysis

         632  atoms
         360  bonds
         180  angles
           0  dihedrals
           0  impropers

           5  atom types
           1  bond types
           1  angle types
           0  dihedral types
           0  improper types

0.000000 14.420000 xlo xhi
0.000000 14.985000 ylo yhi
0.000000 32.063999 zlo zhi

Masses

1  196.967   # Au_Au6_i
2   35.450   # Cl_Cl
3    1.008   # H_H2O
4   22.990   # Na_Na
5   15.999   # O_H2O

Pair Coeffs

    1      5.29000000      2.62904212  # Au_Au6_i
    2      0.11780000      4.41720000  # Cl_Cl
    3      0.00000000      0.00000000  # H_H2O
    4      0.00280000      3.33040000  # Na_Na
    5      0.10200000      3.18800000  # O_H2O

Bond Coeffs

    1    450.000000      0.957200  #  O-H   | H2O

Angle Coeffs

    1     55.000000    104.520000  #  H-O-H    | H2O

Atoms

  1   0      1  0.0000000   0.72100   0.41650   1.17750
  2   0      1  0.0000000   2.16300   2.91350   1.17750
  3   0      1  0.0000000   0.72100   2.08150   3.53250
  4   0      1  0.0000000   2.16300   4.57850   3.53250
  5   0      1  0.0000000   2.16300   1.24850   5.88650
  6   0      1  0.0000000   0.72100   3.74650   5.88650
  7   0      1  0.0000000   0.72100   5.41150   1.17750
  8   0      1  0.0000000   2.16300   7.90850   1.17750
  9   0      1  0.0000000   0.72100   7.07650   3.53250
 10   0      1  0.0000000   2.16300   9.57350   3.53250
 11   0      1  0.0000000   2.16300   6.24350   5.88650
 12   0      1  0.0000000   0.72100   8.74150   5.88650
 13   0      1  0.0000000   0.72100  10.40650   1.17750
 14   0      1  0.0000000   2.16300  12.90350   1.17750
 15   0      1  0.0000000   0.72100  12.07150   3.53250
 16   0      1  0.0000000   2.16300  14.56850   3.53250
 17   0      1  0.0000000   2.16300  11.23850   5.88650
 18   0      1  0.0000000   0.72100  13.73650   5.88650
 19   0      1  0.0000000   3.60500   0.41650   1.17750
 20   0      1  0.0000000   5.04700   2.91350   1.17750
 21   0      1  0.0000000   3.60500   2.08150   3.53250
 22   0      1  0.0000000   5.04700   4.57850   3.53250
 23   0      1  0.0000000   5.04700   1.24850   5.88650
 24   0      1  0.0000000   3.60500   3.74650   5.88650
 25   0      1  0.0000000   3.60500   5.41150   1.17750
 26   0      1  0.0000000   5.04700   7.90850   1.17750
 27   0      1  0.0000000   3.60500   7.07650   3.53250
 28   0      1  0.0000000   5.04700   9.57350   3.53250
 29   0      1  0.0000000   5.04700   6.24350   5.88650
 30   0      1  0.0000000   3.60500   8.74150   5.88650
 31   0      1  0.0000000   3.60500  10.40650   1.17750
 32   0      1  0.0000000   5.04700  12.90350   1.17750
 33   0      1  0.0000000   3.60500  12.07150   3.53250
 34   0      1  0.0000000   5.04700  14.56850   3.53250
 35   0      1  0.0000000   5.04700  11.23850   5.88650
 36   0      1  0.0000000   3.60500  13.73650   5.88650
 37   0      1  0.0000000   6.48900   0.41650   1.17750
 38   0      1  0.0000000   7.93100   2.91350   1.17750
 39   0      1  0.0000000   6.48900   2.08150   3.53250
 40   0      1  0.0000000   7.93100   4.57850   3.53250
 41   0      1  0.0000000   7.93100   1.24850   5.88650
 42   0      1  0.0000000   6.48900   3.74650   5.88650
 43   0      1  0.0000000   6.48900   5.41150   1.17750
 44   0      1  0.0000000   7.93100   7.90850   1.17750
 45   0      1  0.0000000   6.48900   7.07650   3.53250
 46   0      1  0.0000000   7.93100   9.57350   3.53250
 47   0      1  0.0000000   7.93100   6.24350   5.88650
 48   0      1  0.0000000   6.48900   8.74150   5.88650
 49   0      1  0.0000000   6.48900  10.40650   1.17750
 50   0      1  0.0000000   7.93100  12.90350   1.17750
 51   0      1  0.0000000   6.48900  12.07150   3.53250
 52   0      1  0.0000000   7.93100  14.56850   3.53250
 53   0      1  0.0000000   7.93100  11.23850   5.88650
 54   0      1  0.0000000   6.48900  13.73650   5.88650
 55   0      1  0.0000000   9.37300   0.41650   1.17750
 56   0      1  0.0000000  10.81500   2.91350   1.17750
 57   0      1  0.0000000   9.37300   2.08150   3.53250
 58   0      1  0.0000000  10.81500   4.57850   3.53250
 59   0      1  0.0000000  10.81500   1.24850   5.88650
 60   0      1  0.0000000   9.37300   3.74650   5.88650
 61   0      1  0.0000000   9.37300   5.41150   1.17750
 62   0      1  0.0000000  10.81500   7.90850   1.17750
 63   0      1  0.0000000   9.37300   7.07650   3.53250
 64   0      1  0.0000000  10.81500   9.57350   3.53250
 65   0      1  0.0000000  10.81500   6.24350   5.88650
 66   0      1  0.0000000   9.37300   8.74150   5.88650
 67   0      1  0.0000000   9.37300  10.40650   1.17750
 68   0      1  0.0000000  10.81500  12.90350   1.17750
 69   0      1  0.0000000   9.37300  12.07150   3.53250
 70   0      1  0.0000000  10.81500  14.56850   3.53250
 71   0      1  0.0000000  10.81500  11.23850   5.88650
 72   0      1  0.0000000   9.37300  13.73650   5.88650
 73   0      1  0.0000000  12.25700   0.41650   1.17750
 74   0      1  0.0000000  13.69900   2.91350   1.17750
 75   0      1  0.0000000  12.25700   2.08150   3.53250
 76   0      1  0.0000000  13.69900   4.57850   3.53250
 77   0      1  0.0000000  13.69900   1.24850   5.88650
 78   0      1  0.0000000  12.25700   3.74650   5.88650
 79   0      1  0.0000000  12.25700   5.41150   1.17750
 80   0      1  0.0000000  13.69900   7.90850   1.17750
 81   0      1  0.0000000  12.25700   7.07650   3.53250
 82   0      1  0.0000000  13.69900   9.57350   3.53250
 83   0      1  0.0000000  13.69900   6.24350   5.88650
 84   0      1  0.0000000  12.25700   8.74150   5.88650
 85   0      1  0.0000000  12.25700  10.40650   1.17750
 86   0      1  0.0000000  13.69900  12.90350   1.17750
 87   0      1  0.0000000  12.25700  12.07150   3.53250
 88   0      1  0.0000000  13.69900  14.56850   3.53250
 89   0      1  0.0000000  13.69900  11.23850   5.88650
 90   0      1  0.0000000  12.25700  13.73650   5.88650
 91   1      4  0.8000000  10.07100   4.13700  16.37800
 92   2      2 -0.8000000  12.69300   1.40800  16.11900
 93   3      5 -0.8300000  13.02300   8.95200  26.01300
 94   3      3  0.4150000  13.03700   7.98400  26.01900
 95   3      3  0.4150000  13.42100   9.19700  26.86100
 96   4      5 -0.8300000   9.31300   5.43200  19.74300
 97   4      3  0.4150000   9.00200   6.32300  19.95800
 98   4      3  0.4150000   9.86700   5.56100  18.95900
 99   5      5 -0.8300000  13.03100   7.40600   9.02100
100   5      3  0.4150000  13.42300   6.71500   9.57400
101   5      3  0.4150000  12.63000   8.01600   9.65800
102   6      5 -0.8300000   4.02200  12.36800  21.65300
103   6      3  0.4150000   4.51700  12.86700  22.31900
104   6      3  0.4150000   4.42500  11.48800  21.67200
105   7      5 -0.8300000   3.22800   8.12300  15.18500
106   7      3  0.4150000   2.53600   8.77300  14.99700
107   7      3  0.4150000   3.54000   8.36100  16.07000
108   8      5 -0.8300000   7.63200   9.55300  22.99400
109   8      3  0.4150000   7.47000  10.50400  23.06700
110   8      3  0.4150000   8.23900   9.36200  23.72400
111   9      5 -0.8300000   3.92800   7.70300   8.65800
112   9      3  0.4150000   3.36500   7.18500   8.06500
113   9      3  0.4150000   4.48800   8.21700   8.05800
114  10      5 -0.8300000   4.34600   6.56100  24.91200
115  10      3  0.4150000   4.35100   6.08200  25.75300
116  10      3  0.4150000   3.57400   7.14200  24.97800
117  11      5 -0.8300000   5.83100   8.83000  14.83200
118  11      3  0.4150000   5.69800   8.60000  15.76300
119  11      3  0.4150000   5.00600   9.26800  14.57900
120  12      5 -0.8300000   5.24800   4.75800  22.53800
121  12      3  0.4150000   4.73500   5.29000  23.16200
122  12      3  0.4150000   5.79300   4.19300  23.10500
123  13      5 -0.8300000   3.23000   6.29800  10.66600
124  13      3  0.4150000   3.46000   5.94100  11.53500
125  13      3  0.4150000   3.09900   7.24400  10.82800
126  14      5 -0.8300000   4.85100   4.98600  28.17300
127  14      3  0.4150000   5.14800   4.65800  29.03400
128  14      3  0.4150000   4.44800   5.84300  28.37400
129  15      5 -0.8300000  11.81300   9.91100   8.84500
130  15      3  0.4150000  10.91000   9.61700   9.03100
131  15      3  0.4150000  12.06400   9.41100   8.05500
132  16      5 -0.8300000   2.77800   5.26000  14.41300
133  16      3  0.4150000   3.27600   5.04800  15.21600
134  16      3  0.4150000   3.22400   6.04400  14.06200
135  17      5 -0.8300000   7.22100   4.77600   9.10100
136  17      3  0.4150000   7.16800   4.39200   8.21400
137  17      3  0.4150000   7.86500   4.21900   9.56000
138  18      5 -0.8300000   8.62300  11.69800  24.85300
139  18      3  0.4150000   9.02400  12.21500  24.13900
140  18      3  0.4150000   9.30600  11.05400  25.08900
141  19      5 -0.8300000  11.31900   8.86200  11.20800
142  19      3  0.4150000  11.81700   9.67300  11.03400
143  19      3  0.4150000  11.05700   8.94300  12.13700
144  20      5 -0.8300000   1.34900   9.61600  18.08100
145  20      3  0.4150000   0.97900  10.18200  17.38800
146  20      3  0.4150000   0.99500   9.98900  18.90100
147  21      5 -0.8300000   1.63500   9.41100  26.35100
148  21      3  0.4150000   0.99500   9.75200  26.99200
149  21      3  0.4150000   1.10900   8.83400  25.77800
150  22      5 -0.8300000   1.46000   1.84500  19.68600
151  22      3  0.4150000   1.80500   0.99300  19.99000
152  22      3  0.4150000   2.25400   2.36400  19.49100
153  23      5 -0.8300000   8.62700   8.49000  28.15800
154  23      3  0.4150000   8.89100   7.63800  27.78100
155  23      3  0.4150000   8.46200   9.04800  27.38500
156  24      5 -0.8300000  11.01700   5.04400  28.28100
157  24      3  0.4150000  11.58000   5.31700  27.54300
158  24      3  0.4150000  10.42800   4.38000  27.89400
159  25      5 -0.8300000   9.65200  13.81600  10.53000
160  25      3  0.4150000   9.41400  14.01100   9.61200
161  25      3  0.4150000   9.06900  13.08200  10.77200
162  26      5 -0.8300000   4.38600  10.73400  27.17000
163  26      3  0.4150000   4.61500  10.15400  27.91000
164  26      3  0.4150000   3.54800  10.37700  26.84200
165  27      5 -0.8300000   7.98200   9.76000  19.18000
166  27      3  0.4150000   7.84400   8.81200  19.32200
167  27      3  0.4150000   7.23800  10.02400  18.62000
168  28      5 -0.8300000   2.72700   5.93600  17.90300
169  28      3  0.4150000   2.25600   5.42400  17.23000
170  28      3  0.4150000   3.09500   6.68500  17.41200
171  29      5 -0.8300000  10.78000  12.45800  29.39600
172  29      3  0.4150000   9.90500  12.64000  29.02400
173  29      3  0.4150000  11.21200  11.91200  28.72400
174  30      5 -0.8300000   2.79100   8.94700  19.62900
175  30      3  0.4150000   3.00600   8.32500  18.91900
176  30      3  0.4150000   3.15400   9.79000  19.31800
177  31      5 -0.8300000   4.62400  13.88800  19.61900
178  31      3  0.4150000   3.80300  13.93800  20.13000
179  31      3  0.4150000   4.92000  12.97400  19.74100
180  32      5 -0.8300000  10.85900  11.78600  12.97300
181  32      3  0.4150000  11.41200  11.03600  12.71200
182  32      3  0.4150000  10.30400  11.95000  12.19700
183  33      5 -0.8300000   7.51900  13.69900  16.50300
184  33      3  0.4150000   7.64600  12.74100  16.44700
185  33      3  0.4150000   7.51800  13.98900  15.57900
186  34      5 -0.8300000   8.16200  12.34400   8.91000
187  34      3  0.4150000   8.99900  11.86800   8.80200
188  34      3  0.4150000   7.90400  12.57300   8.00600
189  35      5 -0.8300000   6.88700   9.69800  12.82000
190  35      3  0.4150000   7.78900  10.04200  12.74300
191  35      3  0.4150000   6.41500  10.38500  13.31200
192  36      5 -0.8300000   4.76400   3.47900  20.16400
193  36      3  0.4150000   4.82400   3.16700  21.07900
194  36      3  0.4150000   3.84400   3.76700  20.07500
195  37      5 -0.8300000   6.36800   1.11800  29.25800
196  37      3  0.4150000   6.96900   1.00000  28.50700
197  37      3  0.4150000   6.87100   1.66800  29.87600
198  38      5 -0.8300000  11.41600  10.86100  24.50200
199  38      3  0.4150000  11.28800  11.41100  23.71500
200  38      3  0.4150000  11.98500  10.14100  24.19400
201  39      5 -0.8300000   8.49900   1.68200  26.30200
202  39      3  0.4150000   7.90900   0.97500  26.00300
203  39      3  0.4150000   8.91100   2.00400  25.48700
204  40      5 -0.8300000  11.23600   6.57100   8.06300
205  40      3  0.4150000  10.30800   6.29500   8.06400
206  40      3  0.4150000  11.71700   5.77900   8.34400
207  41      5 -0.8300000   2.81300  13.23800  24.12000
208  41      3  0.4150000   1.93800  13.61500  24.29300
209  41      3  0.4150000   3.33000  13.98800  23.79200
210  42      5 -0.8300000   3.23000  13.96400  26.15200
211  42      3  0.4150000   2.57000  13.96900  26.86000
212  42      3  0.4150000   4.02900  13.62200  26.57900
213  43      5 -0.8300000  13.17400  12.23600  24.53400
214  43      3  0.4150000  13.42000  11.51400  25.13000
215  43      3  0.4150000  13.11100  13.00800  25.11500
216  44      5 -0.8300000   6.40200   6.68600  12.68400
217  44      3  0.4150000   6.23800   7.60100  12.95400
218  44      3  0.4150000   5.51600   6.30500  12.59400
219  45      5 -0.8300000  12.84300   5.23200  19.03800
220  45      3  0.4150000  12.01300   5.54700  19.42500
221  45      3  0.4150000  13.43000   5.12200  19.80000
222  46      5 -0.8300000  10.79700   3.73100  24.83800
223  46      3  0.4150000  11.20500   4.24300  24.12500
224  46      3  0.4150000  10.63800   2.86200  24.44200
225  47      5 -0.8300000   6.73700  13.79200  26.20200
226  47      3  0.4150000   6.19300  13.54600  26.96500
227  47      3  0.4150000   6.09200  13.98500  25.50700
228  48      5 -0.8300000   7.43400  10.11300  15.62200
229  48      3  0.4150000   8.13100   9.55600  15.24600
230  48      3  0.4150000   7.76100  10.33200  16.50600
231  49      5 -0.8300000   2.84400   4.22200  22.86200
232  49      3  0.4150000   2.63700   5.05000  22.40400
233  49      3  0.4150000   2.94500   3.57700  22.14600
234  50      5 -0.8300000   5.25000   6.67200  17.81600
235  50      3  0.4150000   4.89900   6.12600  18.53400
236  50      3  0.4150000   4.99700   7.57400  18.06200
237  51      5 -0.8300000   6.88100   6.74600  27.80300
238  51      3  0.4150000   6.45500   6.68800  28.67000
239  51      3  0.4150000   6.21000   6.41400  27.18900
240  52      5 -0.8300000  12.18800  12.72800  20.42000
241  52      3  0.4150000  11.33700  12.26600  20.42900
242  52      3  0.4150000  12.60400  12.43700  19.59600
243  53      5 -0.8300000   9.91600   5.75000  25.07700
244  53      3  0.4150000   9.30300   5.16900  25.55000
245  53      3  0.4150000  10.49400   6.09600  25.77200
246  54      5 -0.8300000   6.91900  13.81400  19.36900
247  54      3  0.4150000   7.60500  13.89500  20.04700
248  54      3  0.4150000   7.01100  12.90500  19.05000
249  55      5 -0.8300000   9.62900   1.76300  28.84200
250  55      3  0.4150000  10.51600   1.85000  29.22000
251  55      3  0.4150000   9.05500   1.65400  29.61400
252  56      5 -0.8300000   1.00000   1.03600  11.91700
253  56      3  0.4150000   1.87000   1.00000  11.49500
254  56      3  0.4150000   1.19700   0.99900  12.86400
255  57      5 -0.8300000   2.94400   1.87300  23.84600
256  57      3  0.4150000   2.11200   2.36500  23.78300
257  57      3  0.4150000   2.67300   0.99400  24.15000
258  58      5 -0.8300000   7.27800   3.35500  15.68700
259  58      3  0.4150000   6.62800   3.26600  16.39900
260  58      3  0.4150000   8.12400   3.16000  16.11700
261  59      5 -0.8300000  12.92400  12.06900  11.30900
262  59      3  0.4150000  13.42300  12.50400  10.60200
263  59      3  0.4150000  12.26400  12.72800  11.56900
264  60      5 -0.8300000   6.45500   0.99200  20.64500
265  60      3  0.4150000   5.75300   1.18500  21.28300
266  60      3  0.4150000   7.27000   1.07600  21.16200
267  61      5 -0.8300000   6.32300  13.75500  30.59400
268  61      3  0.4150000   5.64600  14.00000  29.94600
269  61      3  0.4150000   7.15700  13.98900  30.16100
270  62      5 -0.8300000  10.59800  13.43300  26.46500
271  62      3  0.4150000  11.11200  12.75900  25.99800
272  62      3  0.4150000   9.68000  13.23100  26.23300
273  63      5 -0.8300000  10.20900   8.56400  24.86200
274  63      3  0.4150000   9.45700   8.72500  25.44900
275  63      3  0.4150000  10.95500   8.43800  25.46600
276  64      5 -0.8300000   9.20500  11.67900  17.59800
277  64      3  0.4150000   9.51800  10.99600  18.20900
278  64      3  0.4150000   8.96900  12.42000  18.17400
279  65      5 -0.8300000  12.73700   2.65300  26.35400
280  65      3  0.4150000  13.08400   2.86200  25.47500
281  65      3  0.4150000  13.01100   1.73600  26.50200
282  66      5 -0.8300000   5.69500   2.89400  26.03100
283  66      3  0.4150000   6.00000   2.01800  26.31200
284  66      3  0.4150000   5.54000   3.36500  26.86200
285  67      5 -0.8300000   9.74700   9.19300  20.35800
286  67      3  0.4150000   9.99000   8.25700  20.30200
287  67      3  0.4150000  10.40100   9.63900  19.80100
288  68      5 -0.8300000   1.78300   4.41400  20.48200
289  68      3  0.4150000   1.92200   4.98600  19.71300
290  68      3  0.4150000   0.96000   3.94500  20.27900
291  69      5 -0.8300000   5.16900   1.44900  18.92100
292  69      3  0.4150000   5.69100   1.94900  18.27700
293  69      3  0.4150000   4.47000   1.04000  18.38900
294  70      5 -0.8300000   3.93500   7.83200  27.15900
295  70      3  0.4150000   3.18300   7.22500  27.22400
296  70      3  0.4150000   4.17600   8.00600  28.08000
297  71      5 -0.8300000   6.82300   9.18700  10.42300
298  71      3  0.4150000   7.38700   8.62000  10.96900
299  71      3  0.4150000   6.98900   8.88100   9.51900
300  72      5 -0.8300000   8.38100   5.22100  14.09200
301  72      3  0.4150000   8.65500   4.30700  14.26100
302  72      3  0.4150000   9.17700   5.74100  14.27400
303  73      5 -0.8300000   1.40200  13.98800  28.87300
304  73      3  0.4150000   2.35200  13.92700  29.04700
305  73      3  0.4150000   0.99900  13.92500  29.75100
306  74      5 -0.8300000  11.29300  10.17500  27.36600
307  74      3  0.4150000  10.42700   9.95700  26.99100
308  74      3  0.4150000  11.69400  10.75900  26.70600
309  75      5 -0.8300000   4.21500   4.43600  17.30600
310  75      3  0.4150000   4.91100   4.61100  16.65700
311  75      3  0.4150000   4.67300   3.97300  18.02300
312  76      5 -0.8300000  12.72400   4.31800  10.84100
313  76      3  0.4150000  12.29300   4.26800  11.70700
314  76      3  0.4150000  12.44900   3.50400  10.39600
315  77      5 -0.8300000   5.42700  12.12500   8.03700
316  77      3  0.4150000   5.98500  11.82000   8.76600
317  77      3  0.4150000   4.64300  12.48600   8.47700
318  78      5 -0.8300000   1.00600   3.36700  26.40200
319  78      3  0.4150000   1.57500   2.79200  25.87000
320  78      3  0.4150000   0.96800   2.92700  27.26300
321  79      5 -0.8300000  12.34900   7.19800  20.84000
322  79      3  0.4150000  13.27300   7.18300  20.55200
323  79      3  0.4150000  12.11800   8.13800  20.84000
324  80      5 -0.8300000   3.99800   1.09800  26.33300
325  80      3  0.4150000   4.29800   0.98400  27.24600
326  80      3  0.4150000   3.69500   2.01700  26.29900
327  81      5 -0.8300000   7.56600   7.65000  25.77400
328  81      3  0.4150000   7.73700   6.70700  25.63700
329  81      3  0.4150000   7.12300   7.92800  24.96000
330  82      5 -0.8300000   3.75300   8.49700  12.50700
331  82      3  0.4150000   4.06700   7.86800  13.17200
332  82      3  0.4150000   3.39200   9.22900  13.02800
333  83      5 -0.8300000   2.30700   1.01200  28.18100
334  83      3  0.4150000   2.61700   1.92100  28.30500
335  83      3  0.4150000   2.00700   0.99100  27.26100
336  84      5 -0.8300000  10.18000   3.42200  19.76100
337  84      3  0.4150000   9.82000   2.68600  19.24400
338  84      3  0.4150000  11.07700   3.53600  19.41500
339  85      5 -0.8300000  12.51200   8.80500  14.11200
340  85      3  0.4150000  12.90800   8.15800  14.71300
341  85      3  0.4150000  11.56100   8.72500  14.27500
342  86      5 -0.8300000   4.32500  12.58600  30.98900
343  86      3  0.4150000   3.75400  13.36500  31.06400
344  86      3  0.4150000   3.71900  11.84000  31.10500
345  87      5 -0.8300000   3.93000   3.96800  25.31700
346  87      3  0.4150000   3.08600   4.40000  25.12200
347  87      3  0.4150000   4.18900   3.56900  24.47400
348  88      5 -0.8300000   3.24500  10.53200  16.14100
349  88      3  0.4150000   2.37700  10.79700  15.80600
350  88      3  0.4150000   3.13300  10.52400  17.10300
351  89      5 -0.8300000   2.10400   6.97200  21.46700
352  89      3  0.4150000   2.47700   6.93100  20.57400
353  89      3  0.4150000   1.14900   6.91200  21.32500
354  90      5 -0.8300000   6.96800   3.81200  11.65800
355  90      3  0.4150000   7.52700   3.77600  12.44800
356  90      3  0.4150000   6.19200   4.31500  11.94400
357  91      5 -0.8300000  13.17800   3.09700  28.46900
358  91      3  0.4150000  13.42000   4.03200  28.39800
359  91      3  0.4150000  12.23800   3.11600  28.69900
360  92      5 -0.8300000   3.88200  11.96600  28.91700
361  92      3  0.4150000   4.23200  12.84700  28.72200
362  92      3  0.4150000   3.04400  11.93300  28.43400
363  93      5 -0.8300000   5.49200   7.41200  10.17700
364  93      3  0.4150000   5.76100   6.51300  10.41800
365  93      3  0.4150000   5.21700   7.80800  11.01700
366  94      5 -0.8300000   6.48900  13.46200  12.70600
367  94      3  0.4150000   7.20500  14.00000  13.07500
368  94      3  0.4150000   5.69400  13.99200  12.86200
369  95      5 -0.8300000   5.67700  11.01100  24.98300
370  95      3  0.4150000   6.54700  11.18800  25.37000
371  95      3  0.4150000   5.73600  11.38600  24.09200
372  96      5 -0.8300000   4.69600   2.59000  15.49100
373  96      3  0.4150000   3.80000   2.78500  15.17800
374  96      3  0.4150000   4.58600   2.44900  16.44200
375  97      5 -0.8300000   2.35800  13.98500  18.47400
376  97      3  0.4150000   1.95800  13.32100  17.89400
377  97      3  0.4150000   1.78600  13.99000  19.25500
378  98      5 -0.8300000   1.07800   3.11800  17.43300
379  98      3  0.4150000   1.00200   3.83200  18.08200
380  98      3  0.4150000   1.95000   3.25400  17.03500
381  99      5 -0.8300000   8.81300   1.86700  11.93000
382  99      3  0.4150000   7.97100   1.86600  11.45200
383  99      3  0.4150000   8.84000   0.99900  12.35800
384 100      5 -0.8300000   6.76100   1.62700  14.43000
385 100      3  0.4150000   6.19000   1.98100  13.73200
386 100      3  0.4150000   7.34000   1.00500  13.96600
387 101      5 -0.8300000   2.88500  10.07200  24.11400
388 101      3  0.4150000   2.97600   9.24900  24.61700
389 101      3  0.4150000   2.85500  10.76000  24.79400
390 102      5 -0.8300000  11.89000   4.76400  21.48600
391 102      3  0.4150000  11.17400   4.28300  21.92600
392 102      3  0.4150000  12.15800   5.43000  22.13500
393 103      5 -0.8300000   5.04000   3.95200  13.78700
394 103      3  0.4150000   5.64700   4.66000  14.04800
395 103      3  0.4150000   4.39800   4.39300  13.21200
396 104      5 -0.8300000   9.71200   2.73700  22.44000
397 104      3  0.4150000   9.07000   3.44000  22.61300
398 104      3  0.4150000   9.24600   1.92700  22.69300
399 105      5 -0.8300000  12.05000   2.37400  12.79800
400 105      3  0.4150000  11.69800   2.98600  13.46100
401 105      3  0.4150000  11.96500   1.50400  13.21400
402 106      5 -0.8300000  12.26100   2.48900  23.00700
403 106      3  0.4150000  12.93200   3.18500  23.06800
404 106      3  0.4150000  12.58000   1.80400  23.61300
405 107      5 -0.8300000   1.55500   6.72700  28.61500
406 107      3  0.4150000   0.99800   7.17000  27.95800
407 107      3  0.4150000   0.99900   6.00600  28.94500
408 108      5 -0.8300000  10.67900  13.38900  22.95700
409 108      3  0.4150000  10.18000  13.98600  23.53400
410 108      3  0.4150000  10.06900  13.20300  22.22800
411 109      5 -0.8300000   6.81600  13.03000  10.50700
412 109      3  0.4150000   5.87500  12.88800  10.68600
413 109      3  0.4150000   6.92100  13.99100  10.55700
414 110      5 -0.8300000  12.38000  10.26800  17.23200
415 110      3  0.4150000  12.52100   9.46400  16.71200
416 110      3  0.4150000  11.50800  10.14000  17.63200
417 111      5 -0.8300000   1.12300   6.69900  15.01800
418 111      3  0.4150000   0.98900   7.40800  15.66300
419 111      3  0.4150000   0.99200   5.88700  15.52900
420 112      5 -0.8300000   1.55500  11.65300  22.02900
421 112      3  0.4150000   0.99100  12.40600  22.25600
422 112      3  0.4150000   2.22300  11.64000  22.73000
423 113      5 -0.8300000   3.37700   5.87000  30.29400
424 113      3  0.4150000   2.99400   6.30600  31.06900
425 113      3  0.4150000   3.07800   4.95200  30.36900
426 114      5 -0.8300000   5.74300   8.56900  19.91600
427 114      3  0.4150000   6.18900   8.62100  20.77400
428 114      3  0.4150000   4.83400   8.32000  20.13900
429 115      5 -0.8300000   2.08500   0.97600  15.74200
430 115      3  0.4150000   2.96000   1.00400  16.15600
431 115      3  0.4150000   1.47700   1.18700  16.46600
432 116      5 -0.8300000   2.64800  10.33500  10.13000
433 116      3  0.4150000   3.00000   9.61600  10.67400
434 116      3  0.4150000   2.36900  11.00200  10.77400
435 117      5 -0.8300000   5.90400   2.28500   8.93000
436 117      3  0.4150000   6.16400   1.93900   8.06300
437 117      3  0.4150000   6.73600   2.33700   9.42100
438 118      5 -0.8300000   9.56400   1.38700   9.90200
439 118      3  0.4150000  10.19800   2.04000  10.23100
440 118      3  0.4150000   8.90900   1.91600   9.42400
441 119      5 -0.8300000   8.65200   7.60000  13.22600
442 119      3  0.4150000   8.14600   7.71600  14.04300
443 119      3  0.4150000   9.19100   8.40200  13.16800
444 120      5 -0.8300000  13.26600   9.99700  20.59100
445 120      3  0.4150000  13.35400  10.35600  21.48600
446 120      3  0.4150000  12.42200  10.35300  20.27700
447 121      5 -0.8300000   2.71400   4.61500  27.81200
448 121      3  0.4150000   2.08200   5.08500  27.24900
449 121      3  0.4150000   2.96300   3.84000  27.28800
450 122      5 -0.8300000   2.27100   9.14600  21.75500
451 122      3  0.4150000   3.00900   9.74400  21.94300
452 122      3  0.4150000   1.56500   9.45400  22.34100
453 123      5 -0.8300000   5.05700   9.91600   9.33400
454 123      3  0.4150000   5.01800  10.42500  10.15600
455 123      3  0.4150000   4.38000  10.32300   8.77400
456 124      5 -0.8300000  11.63000   7.59300  29.01500
457 124      3  0.4150000  11.78600   8.49400  28.69800
458 124      3  0.4150000  10.96200   7.24300  28.40700
459 125      5 -0.8300000   7.27000   5.39300  18.93000
460 125      3  0.4150000   6.87100   6.06900  19.49800
461 125      3  0.4150000   6.57200   4.73000  18.82900
462 126      5 -0.8300000  10.32200   4.09500   8.07000
463 126      3  0.4150000  10.76800   3.54500   8.73100
464 126      3  0.4150000   9.41300   3.76400   8.06400
465 127      5 -0.8300000   7.60900   3.77500  25.40000
466 127      3  0.4150000   7.00600   4.53200  25.37200
467 127      3  0.4150000   7.97700   3.73500  24.50500
468 128      5 -0.8300000   7.87000   4.06100  27.56500
469 128      3  0.4150000   8.45300   3.41800  27.99500
470 128      3  0.4150000   7.85300   4.80900  28.18000
471 129      5 -0.8300000  11.66900   1.14700  21.36900
472 129      3  0.4150000  11.13400   1.78500  20.87400
473 129      3  0.4150000  12.44100   1.00000  20.80400
474 130      5 -0.8300000  11.53200  13.81800   9.17300
475 130      3  0.4150000  11.41400  12.91800   9.51100
476 130      3  0.4150000  12.48000  13.98600   9.27900
477 131      5 -0.8300000   7.08200   9.52700  29.70600
478 131      3  0.4150000   6.69200   8.81500  29.17800
479 131      3  0.4150000   7.46500  10.12400  29.04900
480 132      5 -0.8300000  10.27200   9.60800  22.92700
481 132      3  0.4150000  10.27500   8.76700  22.44700
482 132      3  0.4150000  10.02900  10.26100  22.25600
483 133      5 -0.8300000  12.25900   7.48100  23.22600
484 133      3  0.4150000  12.90400   8.20300  23.22900
485 133      3  0.4150000  12.28700   7.13800  24.13200
486 134      5 -0.8300000   2.51500  12.05900  20.09300
487 134      3  0.4150000   3.01800  11.97400  19.27000
488 134      3  0.4150000   1.60100  11.88000  19.82800
489 135      5 -0.8300000   6.67800   6.08400  23.81200
490 135      3  0.4150000   6.56400   6.79400  23.16300
491 135      3  0.4150000   7.51100   5.66300  23.55500
492 136      5 -0.8300000   6.50800  11.51100  30.46300
493 136      3  0.4150000   5.94400  11.77900  29.72300
494 136      3  0.4150000   5.90300  11.05700  31.06700
495 137      5 -0.8300000   4.97200  11.78100  12.36300
496 137      3  0.4150000   4.45300  12.19500  13.06800
497 137      3  0.4150000   4.56400  10.91100  12.25000
498 138      5 -0.8300000  10.23600  10.21100  15.21200
499 138      3  0.4150000   9.97800  10.25200  14.28000
500 138      3  0.4150000  11.02000  10.77700  15.26300
501 139      5 -0.8300000   8.58500   6.39200  11.39000
502 139      3  0.4150000   8.39700   5.44600  11.30600
503 139      3  0.4150000   8.42900   6.74200  10.50100
504 140      5 -0.8300000   4.89300  13.73600  16.93900
505 140      3  0.4150000   5.60900  13.76700  17.58900
506 140      3  0.4150000   4.16100  13.31800  17.41500
507 141      5 -0.8300000   1.36500   8.38500  12.91600
508 141      3  0.4150000   1.51200   8.70700  12.01500
509 141      3  0.4150000   0.99700   9.15000  13.38100
510 142      5 -0.8300000   6.80300  13.08100  23.09000
511 142      3  0.4150000   6.71000  12.86900  22.15000
512 142      3  0.4150000   7.56000  13.68300  23.12100
513 143      5 -0.8300000   7.86800   5.94600  16.11300
514 143      3  0.4150000   8.73100   5.91800  16.55100
515 143      3  0.4150000   7.32100   5.33900  16.63200
516 144      5 -0.8300000   3.22900  13.31000  15.32000
517 144      3  0.4150000   3.60600  13.99100  14.74400
518 144      3  0.4150000   2.97700  12.60100  14.71100
519 145      5 -0.8300000   4.85100   8.94100  23.48000
520 145      3  0.4150000   4.23500   8.31200  23.07600