LAMMPS data file generated with LigParGen (israel.cabezadevaca@yale.edu)

      54 atoms
      57 bonds
     102 angles
     158 dihedrals
      18 impropers

      54 atom types
      57 bond types
     102 angle types
     158 dihedral types
      18 improper types

   -9.039000    40.961000 xlo xhi
   -2.232000    47.768000 ylo yhi
   -1.984000    48.016000 zlo zhi

Masses

       1     12.011
       2     12.011
       3     12.011
       4     12.011
       5     14.007
       6     12.011
       7     12.011
       8     12.011
       9     12.011
      10     12.011
      11     12.011
      12     12.011
      13     12.011
      14     12.011
      15     12.011
      16     12.011
      17     12.011
      18     12.011
      19     12.011
      20     12.011
      21     12.011
      22     12.011
      23     12.011
      24     12.011
      25     12.011
      26     12.011
      27      1.008
      28      1.008
      29      1.008
      30      1.008
      31      1.008
      32      1.008
      33      1.008
      34      1.008
      35      1.008
      36      1.008
      37      1.008
      38      1.008
      39      1.008
      40      1.008
      41      1.008
      42      1.008
      43      1.008
      44      1.008
      45      1.008
      46      1.008
      47      1.008
      48      1.008
      49      1.008
      50      1.008
      51      1.008
      52      1.008
      53      1.008
      54      1.008

Pair Coeffs

       1      0.070  3.5500000
       2      0.066  3.5000000
       3      0.066  3.5000000
       4      0.066  3.5000000
       5      0.170  3.2500000
       6      0.066  3.5000000
       7      0.066  3.5000000
       8      0.066  3.5000000
       9      0.066  3.5000000
      10      0.070  3.5500000
      11      0.070  3.5500000
      12      0.070  3.5500000
      13      0.070  3.5500000
      14      0.070  3.5500000
      15      0.070  3.5500000
      16      0.070  3.5500000
      17      0.070  3.5500000
      18      0.070  3.5500000
      19      0.070  3.5500000
      20      0.070  3.5500000
      21      0.070  3.5500000
      22      0.070  3.5500000
      23      0.070  3.5500000
      24      0.070  3.5500000
      25      0.070  3.5500000
      26      0.070  3.5500000
      27      0.030  2.5000000
      28      0.030  2.5000000
      29      0.030  2.5000000
      30      0.030  2.5000000
      31      0.030  2.5000000
      32      0.030  2.5000000
      33      0.030  2.5000000
      34      0.030  2.5000000
      35      0.030  2.5000000
      36      0.030  2.5000000
      37      0.030  2.5000000
      38      0.030  2.5000000
      39      0.030  2.5000000
      40      0.030  2.5000000
      41      0.030  2.5000000
      42      0.030  2.4200000
      43      0.030  2.4200000
      44      0.030  2.4200000
      45      0.030  2.4200000
      46      0.030  2.4200000
      47      0.030  2.4200000
      48      0.030  2.4200000
      49      0.030  2.4200000
      50      0.030  2.4200000
      51      0.030  2.4200000
      52      0.030  2.4200000
      53      0.030  2.4200000
      54      0.030  2.4200000

Bond Coeffs

       1   469.0000     1.4000
       2   385.0000     1.4600
       3   469.0000     1.4000
       4   469.0000     1.4000
       5   469.0000     1.4000
       6   385.0000     1.4600
       7   469.0000     1.4000
       8   469.0000     1.4000
       9   469.0000     1.4000
      10   469.0000     1.4000
      11   469.0000     1.4000
      12   469.0000     1.4000
      13   469.0000     1.4000
      14   469.0000     1.4000
      15   469.0000     1.4000
      16   469.0000     1.4000
      17   317.0000     1.5100
      18   268.0000     1.5290
      19   268.0000     1.5290
      20   367.0000     1.4710
      21   367.0000     1.4710
      22   367.0000     1.4710
      23   367.0000     1.4710
      24   268.0000     1.5290
      25   469.0000     1.4000
      26   340.0000     1.0900
      27   340.0000     1.0900
      28   340.0000     1.0900
      29   340.0000     1.0900
      30   340.0000     1.0900
      31   340.0000     1.0900
      32   340.0000     1.0900
      33   340.0000     1.0900
      34   340.0000     1.0900
      35   340.0000     1.0900
      36   340.0000     1.0900
      37   340.0000     1.0900
      38   340.0000     1.0900
      39   340.0000     1.0900
      40   340.0000     1.0900
      41   367.0000     1.0800
      42   367.0000     1.0800
      43   367.0000     1.0800
      44   367.0000     1.0800
      45   367.0000     1.0800
      46   367.0000     1.0800
      47   367.0000     1.0800
      48   367.0000     1.0800
      49   367.0000     1.0800
      50   367.0000     1.0800
      51   367.0000     1.0800
      52   367.0000     1.0800
      53   367.0000     1.0800
      54   469.0000     1.4000
      55   469.0000     1.4000
      56   268.0000     1.5290
      57   469.0000     1.4000

Angle Coeffs

       1     63.000    120.000
       2     63.000    120.000
       3     63.000    120.000
       4     63.000    120.000
       5     63.000    120.000
       6     63.000    120.000
       7     63.000    120.000
       8     63.000    120.000
       9     63.000    120.000
      10     63.000    120.000
      11     63.000    120.000
      12     63.000    120.000
      13     63.000    120.000
      14     63.000    120.000
      15     63.000    120.000
      16     70.000    120.000
      17     63.000    114.000
      18     58.350    112.700
      19     80.000    111.200
      20     50.000    113.000
      21     50.000    113.000
      22     50.000    113.000
      23     80.000    111.200
      24     63.000    120.000
      25     35.000    109.500
      26     37.500    110.700
      27     37.500    110.700
      28     37.500    110.700
      29     37.500    110.700
      30     35.000    109.500
      31     35.000    109.500
      32     35.000    109.500
      33     35.000    109.500
      34     35.000    109.500
      35     35.000    109.500
      36     35.000    109.500
      37     35.000    109.500
      38     37.500    110.700
      39     37.500    110.700
      40     35.000    120.000
      41     35.000    120.000
      42     35.000    120.000
      43     35.000    120.000
      44     35.000    120.000
      45     35.000    120.000
      46     35.000    120.000
      47     35.000    120.000
      48     35.000    120.000
      49     35.000    120.000
      50     35.000    120.000
      51     35.000    120.000
      52     35.000    120.000
      53     63.000    120.000
      54     63.000    120.000
      55     35.000    120.000
      56     35.000    120.000
      57     63.000    120.000
      58     63.000    120.000
      59     35.000    120.000
      60     35.000    120.000
      61     35.000    120.000
      62     35.000    120.000
      63     63.000    120.000
      64     35.000    120.000
      65     63.000    120.000
      66     35.000    120.000
      67     35.000    120.000
      68     70.000    120.000
      69     58.350    112.700
      70     37.500    110.700
      71     37.500    110.700
      72     37.500    110.700
      73     35.000    109.500
      74     35.000    109.500
      75     50.000    113.000
      76     50.000    113.000
      77     50.000    113.000
      78     37.500    110.700
      79     37.500    110.700
      80     63.000    114.000
      81     37.500    110.700
      82     63.000    120.000
      83     35.000    120.000
      84     33.000    107.800
      85     33.000    107.800
      86     33.000    107.800
      87     33.000    107.800
      88     33.000    107.800
      89     33.000    107.800
      90     33.000    107.800
      91     33.000    107.800
      92     33.000    107.800
      93     37.500    110.700
      94     33.000    107.800
      95     37.500    110.700
      96     35.000    120.000
      97     35.000    120.000
      98     35.000    120.000
      99     63.000    120.000
     100     63.000    120.000
     101     58.350    112.700
     102     63.000    120.000

Dihedral Coeffs

       1      0.000      1.650      0.000     -0.050
       2      0.000      7.250      0.000      0.000
       3      0.000      7.250      0.000      0.000
       4      0.000      7.250      0.000      0.000
       5      0.000      1.650      0.000     -0.050
       6      0.000      7.250      0.000      0.000
       7      0.000      7.250      0.000      0.000
       8      0.000      7.250      0.000      0.000
       9      0.000      7.250      0.000      0.000
      10      0.000      7.250      0.000      0.000
      11      0.000      7.250      0.000      0.000
      12      0.000      1.650      0.000     -0.050
      13      0.000      7.250      0.000      0.000
      14      0.000      7.250      0.000      0.000
      15      0.000      7.250      0.000      0.000
      16     -0.250      0.000      0.000      0.000
      17      0.000      0.000      0.000      0.000
      18      2.732     -0.229      0.485      0.000
      19      1.438     -0.124      0.264      0.000
      20      1.438     -0.124      0.264      0.000
      21      1.438     -0.124      0.264      0.000
      22      1.438     -0.124      0.264      0.000
      23      0.000      7.250      0.000      0.000
      24      0.000      0.000      0.000      0.000
      25      0.000      0.000      0.462      0.000
      26      0.000      0.000      0.462      0.000
      27      0.000      0.000      0.300      0.000
      28      0.000      0.000      0.300      0.000
      29      0.000      0.000      0.302      0.000
      30      0.000      0.000      0.302      0.000
      31      0.000      0.000      0.302      0.000
      32      0.000      0.000      0.302      0.000
      33      0.000      0.000      0.302      0.000
      34      0.000      0.000      0.302      0.000
      35      0.000      0.000      0.302      0.000
      36      0.000      0.000      0.302      0.000
      37      0.000      0.000      0.384      0.000
      38      0.000      0.000      0.384      0.000
      39      0.000      7.250      0.000      0.000
      40      0.000      7.250      0.000      0.000
      41      0.000      7.250      0.000      0.000
      42      0.000      7.250      0.000      0.000
      43      0.000      7.250      0.000      0.000
      44      0.000      7.250      0.000      0.000
      45      0.000      7.250      0.000      0.000
      46      0.000      7.250      0.000      0.000
      47      0.000      7.250      0.000      0.000
      48      0.000      7.250      0.000      0.000
      49      0.000      7.250      0.000      0.000
      50      0.000      7.250      0.000      0.000
      51      0.000      7.250      0.000      0.000
      52      0.000      1.650      0.000     -0.050
      53      0.000      7.250      0.000      0.000
      54      0.000      7.250      0.000      0.000
      55      0.000      7.250      0.000      0.000
      56      0.000      7.250      0.000      0.000
      57      0.000      7.250      0.000      0.000
      58      0.000      7.250      0.000      0.000
      59      0.000      7.250      0.000      0.000
      60      0.000      7.250      0.000      0.000
      61      0.000      7.250      0.000      0.000
      62      0.000      7.250      0.000      0.000
      63      0.000      1.650      0.000     -0.050
      64      0.000      7.250      0.000      0.000
      65      0.000      7.250      0.000      0.000
      66      0.000      7.250      0.000      0.000
      67      0.000      7.250      0.000      0.000
      68      0.000      7.250      0.000      0.000
      69      0.000      7.250      0.000      0.000
      70      0.000      1.650      0.000     -0.050
      71      0.000      1.650      0.000     -0.050
      72      0.000      7.250      0.000      0.000
      73      0.000      7.250      0.000      0.000
      74      0.000      1.650      0.000     -0.050
      75      0.000      7.250      0.000      0.000
      76      0.000      7.250      0.000      0.000
      77      0.000      7.250      0.000      0.000
      78      0.000      7.250      0.000      0.000
      79      0.000      7.250      0.000      0.000
      80      0.000      7.250      0.000      0.000
      81      0.000      7.250      0.000      0.000
      82     -0.250      0.000      0.000      0.000
      83      0.850     -0.200      0.200      0.000
      84      0.000      0.000      0.300      0.000
      85      0.000      0.000      0.300      0.000
      86      0.850     -0.200      0.200      0.000
      87      0.000      0.000      0.300      0.000
      88      0.000      0.000      0.384      0.000
      89      0.000      0.000      0.384      0.000
      90      0.000      0.000      0.302      0.000
      91      0.000      0.000      0.302      0.000
      92      0.000      0.000      0.302      0.000
      93      0.000      0.000      0.302      0.000
      94      0.000      0.000      0.302      0.000
      95      1.438     -0.124      0.264      0.000
      96      0.000      0.000      0.302      0.000
      97      0.000      0.000      0.302      0.000
      98      0.000      0.000      0.302      0.000
      99      0.000      0.000      0.302      0.000
     100      0.000      0.000      0.302      0.000
     101      0.000      0.000      0.302      0.000
     102      0.000      0.000      0.302      0.000
     103      1.438     -0.124      0.264      0.000
     104      0.000      0.000      0.302      0.000
     105      0.000      0.000      0.302      0.000
     106      0.000      0.000      0.302      0.000
     107      0.000      0.000      0.302      0.000
     108      0.000      0.000      0.302      0.000
     109      0.000      0.000      0.302      0.000
     110      0.000      0.000      0.302      0.000
     111      0.000      0.000      0.302      0.000
     112      0.000      0.000      0.302      0.000
     113      0.000      0.000      0.302      0.000
     114     -0.250      0.000      0.000      0.000
     115     -0.250      0.000      0.000      0.000
     116      0.000      0.000      0.300      0.000
     117      0.000      0.000      0.300      0.000
     118      0.000      7.250      0.000      0.000
     119      0.000      0.000      0.000      0.000
     120      0.000      0.000      0.300      0.000
     121      0.000      0.000      0.300      0.000
     122      0.000      0.000      0.300      0.000
     123      0.000      0.000      0.300      0.000
     124      0.000      0.000      0.300      0.000
     125      0.000      0.000      0.300      0.000
     126      0.000      0.000      0.300      0.000
     127      0.000      0.000      0.300      0.000
     128      0.000      0.000      0.300      0.000
     129      0.000      0.000      0.300      0.000
     130      0.000      0.000      0.300      0.000
     131      0.000      0.000      0.300      0.000
     132      0.000      0.000      0.300      0.000
     133      0.000      0.000      0.300      0.000
     134      0.000      0.000      0.300      0.000
     135      0.000      0.000      0.462      0.000
     136      0.000      0.000      0.462      0.000
     137      0.000      7.250      0.000      0.000
     138      0.000      7.250      0.000      0.000
     139      0.000      7.250      0.000      0.000
     140      0.000      7.250      0.000      0.000
     141      0.000      7.250      0.000      0.000
     142      0.000      7.250      0.000      0.000
     143      0.000      7.250      0.000      0.000
     144      0.000      7.250      0.000      0.000
     145      0.000      7.250      0.000      0.000
     146      0.000      7.250      0.000      0.000
     147      0.000      7.250      0.000      0.000
     148      0.000      7.250      0.000      0.000
     149      0.000      7.250      0.000      0.000
     150      0.000      7.250      0.000      0.000
     151      0.000      7.250      0.000      0.000
     152      0.000      7.250      0.000      0.000
     153      0.000      7.250      0.000      0.000
     154      0.000      7.250      0.000      0.000
     155      2.732     -0.229      0.485      0.000
     156      0.000      0.000      0.000      0.000
     157      0.000      7.250      0.000      0.000
     158      0.000      7.250      0.000      0.000

Improper Coeffs

       1      2.500      -1       2
       2      2.500      -1       2
       3      2.500      -1       2
       4      2.500      -1       2
       5      2.500      -1       2
       6      2.500      -1       2
       7      2.500      -1       2
       8      2.500      -1       2
       9      2.500      -1       2
      10      2.500      -1       2
      11      2.500      -1       2
      12      2.500      -1       2
      13      2.500      -1       2
      14      2.500      -1       2
      15      2.500      -1       2
      16      2.500      -1       2
      17      2.500      -1       2
      18      2.500      -1       2

Atoms

     1      1      1  -0.113540 -2.74700  0.53200  0.39600
     2      1      2  -0.073087 -4.25800  0.66100  0.49000
     3      1      3  -0.181172 -4.91500  0.94900 -0.86900
     4      1      4  -0.154987 -6.45000  1.05000 -0.75000
     5      1      5   0.150120 -7.07300 -0.15800 -0.12400
     6      1      6  -0.207592 -8.52500  0.11100  0.07500
     7      1      7  -0.214700 -6.95400 -1.35000 -1.01400
     8      1      8  -0.155509 -6.45200 -0.41600  1.21300
     9      1      9  -0.180896 -4.91700 -0.56000  1.15200
    10      1     10  -0.118110 -1.91500  1.44400  1.07900
    11      1     11  -0.108849 -0.51400  1.33000  0.99400
    12      1     12  -0.000314  0.07600  0.30300  0.22700
    13      1     13  -0.069882  1.54100  0.18500  0.13900
    14      1     14  -0.109683  2.16200 -1.08200  0.19400
    15      1     15  -0.117022  3.56400 -1.19400  0.11100
    16      1     16  -0.012014  4.36800 -0.04300 -0.03100
    17      1     17  -0.055603  5.83300 -0.16100 -0.11800
    18      1     18  -0.112865  6.56200  0.63600 -1.03000
    19      1     19  -0.125284  7.96400  0.52300 -1.11400
    20      1     20  -0.116322  8.64900 -0.38700 -0.28700
    21      1     21  -0.125268  7.93100 -1.18400  0.62400
    22      1     22  -0.112917  6.52900 -1.07100  0.70800
    23      1     23  -0.116255  3.74700  1.22300 -0.08600
    24      1     24  -0.108211  2.34500  1.33700 -0.00100
    25      1     25  -0.108849 -0.75800 -0.60900 -0.45500
    26      1     26  -0.118110 -2.15900 -0.49600 -0.37200
    27      1     27   0.112007 -4.45500  1.52200  1.13300
    28      1     28   0.126151 -4.51400  1.88700 -1.26400
    29      1     29   0.126151 -4.62900  0.19600 -1.60400
    30      1     30   0.138976 -6.68400  1.93900 -0.15800
    31      1     31   0.138976 -6.87600  1.24100 -1.73900
    32      1     32   0.137095 -9.03700  0.31600 -0.86800
    33      1     33   0.137095 -9.03900 -0.73400  0.53900
    34      1     34   0.137095 -8.69800  0.97600  0.72100
    35      1     35   0.139689 -5.92000 -1.62600 -1.21900
    36      1     36   0.139689 -7.42800 -2.23200 -0.57800
    37      1     37   0.139689 -7.42600 -1.18100 -1.98400
    38      1     38   0.138997 -6.68600  0.40500  1.89700
    39      1     39   0.138997 -6.88000 -1.30900  1.67500
    40      1     40   0.126010 -4.63100 -1.47900  0.63900
    41      1     41   0.126010 -4.51800 -0.67300  2.16400
    42      1     42   0.122858 -2.33700  2.23900  1.67700
    43      1     43   0.148993  0.10900  2.02900  1.53300
    44      1     44   0.130751  1.57100 -1.97800  0.31100
    45      1     45   0.142571  4.02100 -2.17200  0.14700
    46      1     46   0.132528  6.04900  1.33000 -1.67900
    47      1     47   0.135259  8.51300  1.13400 -1.81600
    48      1     48   0.135361  9.72500 -0.47300 -0.35100
    49      1     49   0.135253  8.45600 -1.88000  1.26200
    50      1     50   0.132429  5.99300 -1.68100  1.42000
    51      1     51   0.143471  4.34600  2.11700 -0.18400
    52      1     52   0.132971  1.89400  2.31600 -0.05400
    53      1     53   0.148993 -0.32000 -1.39300 -1.05600
    54      1     54   0.122856 -2.77100 -1.20600 -0.90800

Bonds

     1      1     11     12
     2      2     13     12
     3      3     14     13
     4      4     15     14
     5      5     16     15
     6      6     17     16
     7      7     18     17
     8      8     19     18
     9      9     20     19
    10     10     21     20
    11     11     22     21
    12     12     23     16
    13     13     24     23
    14     14     25     12
    15     15     26     25
    16     16      1     26
    17     17      2      1
    18     18      3      2
    19     19      4      3
    20     20      5      4
    21     21      6      5
    22     22      7      5
    23     23      8      5
    24     24      9      8
    25     25     10      1
    26     26     27      2
    27     27     28      3
    28     28     29      3
    29     29     30      4
    30     30     31      4
    31     31     32      6
    32     32     33      6
    33     33     34      6
    34     34     35      7
    35     35     36      7
    36     36     37      7
    37     37     38      8
    38     38     39      8
    39     39     40      9
    40     40     41      9
    41     41     42     10
    42     42     43     11
    43     43     44     14
    44     44     45     15
    45     45     46     18
    46     46     47     19
    47     47     48     20
    48     48     49     21
    49     49     50     22
    50     50     51     23
    51     51     52     24
    52     52     53     25
    53     53     54     26
    54     54     22     17
    55     55     24     13
    56     56      9      2
    57     57     10     11

Angles

     1      1     13     12     11
     2      2     14     13     12
     3      3     15     14     13
     4      4     16     15     14
     5      5     17     16     15
     6      6     18     17     16
     7      7     19     18     17
     8      8     20     19     18
     9      9     21     20     19
    10     10     22     21     20
    11     11     23     16     15
    12     12     24     23     16
    13     13     25     12     13
    14     14     26     25     12
    15     15      1     26     25
    16     16      2      1     26
    17     17      3      2      1
    18     18      4      3      2
    19     19      5      4      3
    20     20      6      5      4
    21     21      7      5      4
    22     22      8      5      4
    23     23      9      8      5
    24     24     10      1     26
    25     25     27      2      1
    26     26     28      3      2
    27     27     29      3      2
    28     28     30      4      3
    29     29     31      4      3
    30     30     32      6      5
    31     31     33      6      5
    32     32     34      6      5
    33     33     35      7      5
    34     34     36      7      5
    35     35     37      7      5
    36     36     38      8      5
    37     37     39      8      5
    38     38     40      9      8
    39     39     41      9      8
    40     40     42     10      1
    41     41     43     11     12
    42     42     44     14     13
    43     43     45     15     14
    44     44     46     18     17
    45     45     47     19     18
    46     46     48     20     19
    47     47     49     21     20
    48     48     50     22     21
    49     49     51     23     16
    50     50     52     24     23
    51     51     53     25     12
    52     52     54     26     25
    53     53     25     12     11
    54     54     24     13     14
    55     55     44     14     15
    56     56     45     15     16
    57     57     23     16     17
    58     58     22     17     18
    59     59     46     18     19
    60     60     47     19     20
    61     61     48     20     21
    62     62     49     21     22
    63     63     16     17     22
    64     64     51     23     24
    65     65     12     13     24
    66     66     53     25     26
    67     67     54     26      1
    68     68     10      1      2
    69     69      9      2      3
    70     70     27      2      3
    71     71     28      3      4
    72     72     29      3      4
    73     73     30      4      5
    74     74     31      4      5
    75     75      7      5      6
    76     76      8      5      6
    77     77      8      5      7
    78     78     38      8      9
    79     79     39      8      9
    80     80      1      2      9
    81     81     27      2      9
    82     82     12     11     10
    83     83     43     11     10
    84     84     29      3     28
    85     85     31      4     30
    86     86     33      6     32
    87     87     34      6     32
    88     88     34      6     33
    89     89     36      7     35
    90     90     37      7     35
    91     91     37      7     36
    92     92     39      8     38
    93     93      2      9     40
    94     94     41      9     40
    95     95      2      9     41
    96     96     11     10     42
    97     97     17     22     50
    98     98     13     24     52
    99     99     21     22     17
   100    100     23     24     13
   101    101      8      9      2
   102    102      1     10     11

Dihedrals

     1      1     14     13     12     11
     2      2     15     14     13     12
     3      3     16     15     14     13
     4      4     17     16     15     14
     5      5     18     17     16     15
     6      6     19     18     17     16
     7      7     20     19     18     17
     8      8     21     20     19     18
     9      9     22     21     20     19
    10     10     23     16     15     14
    11     11     24     23     16     15
    12     12     25     12     13     14
    13     13     26     25     12     11
    14     14      1     26     25     12
    15     15      2      1     26     25
    16     16      3      2      1     26
    17     17      4      3      2      1
    18     18      5      4      3      2
    19     19      6      5      4      3
    20     20      7      5      4      3
    21     21      8      5      4      3
    22     22      9      8      5      4
    23     23     10      1     26     25
    24     24     27      2      1     26
    25     25     28      3      2      1
    26     26     29      3      2      1
    27     27     30      4      3      2
    28     28     31      4      3      2
    29     29     32      6      5      4
    30     30     33      6      5      4
    31     31     34      6      5      4
    32     32     35      7      5      4
    33     33     36      7      5      4
    34     34     37      7      5      4
    35     35     38      8      5      4
    36     36     39      8      5      4
    37     37     40      9      8      5
    38     38     41      9      8      5
    39     39     42     10      1     26
    40     40     43     11     12     13
    41     41     44     14     13     12
    42     42     45     15     14     13
    43     43     46     18     17     16
    44     44     47     19     18     17
    45     45     48     20     19     18
    46     46     49     21     20     19
    47     47     50     22     21     20
    48     48     51     23     16     15
    49     49     52     24     23     16
    50     50     53     25     12     11
    51     51     54     26     25     12
    52     52     24     13     12     11
    53     53     10     11     12     13
    54     54     26     25     12     13
    55     55     53     25     12     13
    56     56     23     24     13     14
    57     57     52     24     13     14
    58     58     24     13     14     15
    59     59     44     14     15     16
    60     60     45     15     16     17
    61     61     24     23     16     17
    62     62     51     23     16     17
    63     63     23     16     17     18
    64     64     21     22     17     18
    65     65     50     22     17     18
    66     66     22     17     18     19
    67     67     46     18     19     20
    68     68     47     19     20     21
    69     69     48     20     21     22
    70     70     15     16     17     22
    71     71     23     16     17     22
    72     72     46     18     17     22
    73     73     45     15     16     23
    74     74     25     12     13     24
    75     75     44     14     13     24
    76     76     10     11     12     25
    77     77     43     11     12     25
    78     78     53     25     26      1
    79     79     54     26      1      2
    80     80     11     10      1      2
    81     81     42     10      1      2
    82     82     10      1      2      3
    83     83      8      9      2      3
    84     84     40      9      2      3
    85     85     41      9      2      3
    86     86      9      2      3      4
    87     87     27      2      3      4
    88     88     28      3      4      5
    89     89     29      3      4      5
    90     90     30      4      5      6
    91     91     31      4      5      6
    92     92     35      7      5      6
    93     93     36      7      5      6
    94     94     37      7      5      6
    95     95      9      8      5      6
    96     96     38      8      5      6
    97     97     39      8      5      6
    98     98     30      4      5      7
    99     99     31      4      5      7
   100    100     32      6      5      7
   101    101     33      6      5      7
   102    102     34      6      5      7
   103    103      9      8      5      7
   104    104     38      8      5      7
   105    105     39      8      5      7